1.019733300000000042e+01 8.724403000000000574e+00 7.159263000000000154e+00 1.156443299999999930e+01 5.725190000000000001e-01 1.029203000000000090e+00 5.819663000000000252e+00 2.750882999999999967e+00 7.098082999999999920e+00 1.265573299999999968e+01 1.150503000000000053e+00 1.443243299999999962e+01 5.392592999999999748e+00 9.703863000000000127e+00 4.216802999999999635e+00 3.360632999999999981e+00 8.672133000000000536e+00 1.112273300000000020e+01 3.005453000000000152e+00 3.722573000000000132e+00 1.206743299999999941e+01 4.060292999999999708e+00 1.102443300000000015e+01 1.138933300000000060e+01 1.004162999999999917e+00 5.058610000000000051e-01 4.823553000000000424e+00 7.209942999999999991e+00 1.824352999999999891e+00 8.974313000000000429e+00 6.304242999999999597e+00 1.300923300000000005e+01 1.532453300000000063e+01 1.308343299999999942e+01 6.376992999999999689e+00 6.722852999999999746e+00 6.336953000000000280e+00 1.262553000000000036e+00 5.166682999999999915e+00 9.889632999999999896e+00 1.501673300000000033e+01 1.382343299999999964e+01 1.194083299999999959e+01 8.161562999999999235e+00 8.877423000000000286e+00 6.650393000000000221e+00 5.873512999999999984e+00 1.111093299999999928e+01 7.163953000000000237e+00 1.064643300000000004e+01 9.140112999999999488e+00 2.942593000000000014e+00 4.800003000000000242e+00 1.420633300000000077e+01 9.724852999999999525e+00 4.858569999999999833e-01 7.444792999999999772e+00 2.527613000000000110e+00 1.423063299999999920e+01 1.026483299999999943e+01 9.635462999999999667e+00 1.093033299999999919e+01 1.331603299999999912e+01 7.933832999999999913e+00 2.291973000000000038e+00 3.452952999999999939e+00 1.358723299999999945e+01 1.303343300000000049e+01 3.217883000000000049e+00 9.692933000000000021e+00 3.114282999999999912e+00 1.246653300000000009e+01 6.518362999999999907e+00 6.593582999999999750e+00 6.550042999999999616e+00 8.978623000000000687e+00 9.546512999999999138e+00 1.039623300000000050e+01 1.535323299999999946e+01 4.231893000000000349e+00 1.535883300000000062e+01 8.938962999999999326e+00 6.951613000000000042e+00 1.112653300000000023e+01 6.599542999999999715e+00 1.779012999999999955e+00 1.131313300000000055e+01 9.189829999999999943e-01 6.186692999999999998e+00 1.444793300000000080e+01 3.399099999999999899e-01 4.094212999999999880e+00 2.082952999999999832e+00 9.146952999999999889e+00 3.829543000000000141e+00 1.495033300000000054e+01 1.080163300000000071e+01 2.344132999999999800e+00 8.481543000000000276e+00 7.058412999999999826e+00 3.281662999999999997e+00 1.483513300000000079e+01 6.316773000000000415e+00 8.426802999999999599e+00 1.545803300000000036e+01 4.142312999999999690e+00 7.713153000000000148e+00 3.342522999999999911e+00 7.943012999999999657e+00 6.882382999999999917e+00 1.473813299999999948e+01 1.747222999999999971e+00 1.059873299999999929e+01 4.106000000000000205e-01 7.670112999999999737e+00 4.731053000000000175e+00 3.805902999999999814e+00 1.645982999999999974e+00 8.272012999999999394e+00 3.997422999999999949e+00 1.491603300000000054e+01 6.635722999999999594e+00 1.226453300000000013e+01 1.319653300000000051e+01 6.905463000000000129e+00 6.193920000000000536e-01 4.907799999999999940e-01 1.331953299999999984e+01 3.801693000000000211e+00 4.815992999999999746e+00 1.661712999999999996e+00 1.543283300000000047e+01 1.030623300000000064e+01 1.313913299999999929e+01 1.228263300000000058e+01 5.436562999999999590e+00 1.215903300000000087e+01 8.203803000000000623e+00 1.413213000000000052e+00 5.963263000000000424e+00 5.110843000000000025e+00 1.288323300000000060e+01 5.876852999999999660e+00 1.378613299999999953e+01 1.042513300000000065e+01 3.856933000000000167e+00 1.047393300000000060e+01 1.130373299999999936e+01 4.490752999999999773e+00 6.277033000000000307e+00 1.269203300000000034e+01 2.637643000000000182e+00 2.131412999999999780e+00 1.390983000000000080e+00 1.020143299999999975e+01 2.860082999999999931e+00 1.375733299999999915e+01 5.259502999999999595e+00 2.383213000000000026e+00 3.641182999999999836e+00 8.600842999999999350e+00 6.462080000000000046e-01 7.633969999999999922e-01 8.132683000000000106e+00 1.128003299999999953e+01 1.132703300000000013e+01 6.047812999999999661e+00 1.015193299999999965e+01 2.968072999999999961e+00 1.371062999999999921e+00 3.561513000000000151e+00 4.574093000000000409e+00 3.962240000000000206e-01 1.794993000000000061e+00 9.741312999999999889e+00 1.403373299999999979e+01 5.618102999999999625e+00 8.138092999999999577e+00 1.514623300000000050e+01 9.252233000000000374e+00 1.101283300000000054e+01 1.142823300000000053e+01 1.096033300000000033e+01 2.391369999999999885e-01 1.285733300000000057e+01 1.078993299999999955e+01 8.390729999999999578e-01 4.004079999999999862e-01 7.199733000000000160e+00 1.180933300000000052e+01 3.628502999999999812e+00 1.461203300000000027e+01 1.256203299999999956e+01 1.142293300000000045e+01 1.622573000000000043e+00 4.224772999999999890e+00 3.777603000000000044e+00 8.374930000000000430e-01 6.649003000000000441e+00 5.008943000000000367e+00 1.338493300000000019e+01 1.321103300000000047e+01 9.084433000000000646e+00 2.592849999999999877e-01 1.544853299999999940e+01 1.042503300000000088e+01 1.044853299999999940e+01 1.106753299999999918e+01 9.472782999999999731e+00 4.804892999999999859e+00 8.250762999999999181e+00 9.073752999999999957e+00 1.406863300000000017e+01 1.008143300000000053e+01 1.064553300000000036e+01 2.748572999999999933e+00 7.661353000000000080e+00 8.715982999999999592e+00 7.568012999999999657e+00 1.340692999999999913e+00 7.585042999999999758e+00 7.125232999999999706e+00 2.097173000000000176e+00 1.257653299999999952e+01 1.485743300000000033e+01 9.820830000000000393e-01 2.793292999999999804e+00 1.338723300000000016e+01 1.281003300000000067e+01 1.042733300000000085e+01 9.874632999999999328e+00 7.591042999999999985e+00 1.488383299999999920e+01 1.404873300000000036e+01 1.459683300000000017e+01 7.874873000000000012e+00 7.215482999999999869e+00 4.851973000000000091e+00 7.426052999999999571e+00 9.996532999999999447e+00 5.874852999999999881e+00 1.383143300000000053e+01 2.122643000000000058e+00 1.459943299999999944e+01 1.478263300000000058e+01 6.197453000000000323e+00 7.571412999999999727e+00 1.088543300000000080e+01 3.470382999999999996e+00 4.244893000000000249e+00 2.825082999999999789e+00 1.044303299999999979e+01 3.729553000000000118e+00 1.318233299999999986e+01 1.157873299999999972e+01 4.952672999999999881e+00 1.238043300000000002e+01 1.318673300000000026e+01 3.042173000000000016e+00 1.026553299999999957e+01 4.552952999999999584e+00 4.753273000000000081e+00 4.884732999999999770e+00 7.141022999999999676e+00 5.380082999999999949e+00 5.550383000000000067e+00 2.985713000000000061e+00 5.870803000000000438e+00 1.442053300000000071e+01 4.431433000000000177e+00 5.964423000000000030e+00 1.903693000000000080e+00 1.347273299999999985e+01 1.043533299999999997e+01 1.251142999999999894e+00 1.145823299999999989e+01 1.268393299999999968e+01 9.716129999999999489e-01 1.004053299999999993e+01 1.300673300000000054e+01 8.351793000000000688e+00 5.461492999999999931e+00 3.517183000000000170e+00 7.040232999999999741e+00 7.948712999999999695e+00 1.440683300000000067e+01 1.484173299999999962e+01 1.114903299999999930e+01 2.042203000000000213e+00 1.157083000000000084e+00 9.546713000000000449e+00 1.293923299999999976e+01 1.259333299999999944e+01 1.355353299999999983e+01 7.289362999999999815e+00 1.302143300000000004e+01 5.038962999999999859e+00 1.024603300000000061e+01 1.721383000000000107e+00 2.492283000000000026e+00 8.868983000000000061e+00 5.492772999999999683e+00 6.049362999999999602e+00 1.206983299999999915e+01 1.046533299999999933e+01 1.408113299999999946e+01 1.498553300000000021e+01 5.728280000000000038e-01 1.314923300000000062e+01 7.928482999999999947e+00 1.509183299999999939e+01 1.165833300000000072e+01 2.094303000000000026e+00 3.583492999999999817e+00 3.665052999999999894e+00 1.233473299999999995e+01 1.370473299999999917e+01 5.349153000000000269e+00 3.821683000000000163e+00 5.817383000000000415e+00 7.429072999999999816e+00 7.464743000000000350e+00 2.307243000000000155e+00 1.017693300000000001e+01 6.171712999999999560e+00 5.803973000000000049e+00 1.237783300000000075e+01 1.274413299999999971e+01 7.085062999999999889e+00 5.648283000000000165e+00 8.976822999999999553e+00 9.725922999999999874e+00 1.325763300000000022e+01 7.127622999999999820e+00 3.334382999999999875e+00 3.787492999999999999e+00 1.364643300000000004e+01 6.738093000000000110e+00 1.318563299999999927e+01 2.595683000000000185e+00 8.000102999999999298e+00 7.540022999999999698e+00 4.596562999999999732e+00 3.397552999999999823e+00 7.492092999999999670e+00 1.375433300000000081e+01 8.139943000000000595e+00 7.036109999999999864e-01 5.904202999999999868e+00 1.239273299999999978e+01 1.418953300000000084e+01 3.887732999999999883e+00 3.936482999999999954e+00 1.100143300000000046e+01 8.872723000000000582e+00 1.848543000000000047e+00 2.340043000000000095e+00 1.222703300000000048e+01 6.975082999999999700e+00 9.418953000000000131e+00 2.837540000000000062e-01 8.020573000000000619e+00 8.065222999999999587e+00 4.166052999999999784e+00 1.024713299999999983e+01 5.025402999999999842e+00 1.143883300000000069e+01 8.149172999999999334e+00 7.688653000000000404e+00 1.211513300000000015e+01 1.746202999999999950e+00 8.775632999999999129e+00 9.371073000000000874e+00 1.504103300000000054e+01 8.497572999999999155e+00 6.775413000000000352e+00 1.391603300000000054e+01 3.113392999999999855e+00 1.541703000000000046e+00 3.831983000000000139e+00 2.317362999999999840e+00 5.831093000000000082e+00 4.508000000000000201e-02 4.950002999999999709e+00 1.241933299999999996e+01 1.154693299999999923e+01 1.292793299999999945e+01 1.202543299999999959e+01 9.296293000000000362e+00 9.652252999999999972e+00 8.564303000000000665e+00 1.359823300000000046e+01 5.487713000000000285e+00 3.545363000000000042e+00 7.837493000000000265e+00 1.989073000000000091e+00 8.965593000000000146e+00 8.414583000000000368e+00 8.132322999999999524e+00 1.372953299999999999e+01 1.249303300000000050e+01 1.806742999999999988e+00 1.114413300000000007e+01 1.116923300000000019e+01 2.234233000000000136e+00 8.291892999999999958e+00 5.099702999999999875e+00 4.957593000000000139e+00 1.228693299999999944e+01 9.255122999999999323e+00 4.803372999999999671e+00 9.463682999999999623e+00 3.526873000000000147e+00 1.125863299999999967e+01 1.425953299999999935e+01 1.022663299999999964e+01 9.771333000000000268e+00 8.088793000000000788e+00 3.464033000000000140e+00 1.370979999999999976e-01 1.601402999999999910e+00 4.512373000000000189e+00 4.664353000000000193e+00 6.092312999999999867e+00 3.677273000000000014e+00 1.370963300000000018e+01 1.376533300000000004e+01 1.539703300000000041e+01 1.012253300000000067e+01 9.503493000000000634e+00 1.218083299999999980e+01 1.289233300000000071e+01 4.700063000000000102e+00 8.074362999999999957e+00 1.115703300000000020e+01 6.716262999999999650e+00 2.447852999999999835e+00 7.941722999999999644e+00 2.590482999999999869e+00 1.142783299999999969e+01 1.523503299999999960e+01 4.725132999999999583e+00 1.459043300000000087e+01 2.221782999999999841e+00 8.843229999999999702e-01 8.921283000000000740e+00 3.031162999999999830e+00 1.238673299999999955e+01 5.070312999999999626e+00 6.928123000000000253e+00 4.591433000000000320e+00 1.240743299999999927e+01 7.364152999999999949e+00 1.265163300000000035e+01 2.381442999999999977e+00 1.428513300000000008e+01 1.050533300000000025e+01 9.110602999999999341e+00 6.095963000000000243e+00 1.122743000000000047e+00 6.858222999999999736e+00 4.252952999999999761e+00 1.022933300000000045e+01 9.583873000000000530e+00 3.705372999999999806e+00 7.047522999999999982e+00 1.467413299999999943e+01 1.241163300000000014e+01 6.025563000000000002e+00 1.280123299999999986e+01 1.192943000000000087e+00 9.059112999999999971e+00 3.837102999999999930e+00 1.348813299999999948e+01 2.567663000000000029e+00 1.083273299999999928e+01 3.382623000000000157e+00 3.716863000000000028e+00 1.293563299999999927e+01 1.299703300000000006e+01 9.787032999999999205e+00 1.799493000000000009e+00 7.931002999999999581e+00 8.080012999999999224e+00 1.062323300000000081e+01 1.008743300000000076e+01 1.273853300000000033e+01 9.181053000000000353e+00 1.429213299999999975e+01 6.337873000000000090e+00 7.919732999999999912e+00 6.845242999999999967e+00 1.525373300000000043e+01 1.479199999999999959e-02 4.805812999999999668e+00 1.102993299999999977e+01 1.355723300000000009e+01 5.433943000000000190e+00 7.245582999999999885e+00 9.923332999999999515e+00 7.806422999999999668e+00 8.898533000000000470e+00 7.848633000000000415e+00 1.414773300000000056e+01 2.341972999999999860e+00 8.971512999999999849e+00 5.020452999999999832e+00 7.249023000000000216e+00 1.421493300000000026e+01 1.522723300000000002e+01 3.898232999999999837e+00 1.244023299999999921e+01 1.057323300000000010e+01 3.838413000000000075e+00 7.464082999999999579e+00 9.279882999999999882e+00 1.306033299999999997e+01 6.325442999999999927e+00 2.080693000000000126e+00 1.069023299999999921e+01 4.014113000000000042e+00 1.506453300000000084e+01 8.927692999999999657e+00 1.533853299999999997e+01 1.453283300000000011e+01 1.078483300000000078e+01 1.091713299999999975e+01 1.396753299999999953e+01 1.147113300000000002e+01 4.989930000000000199e-01 1.507123299999999944e+01 1.458063300000000062e+01 1.353913299999999964e+01 1.086413300000000071e+01 7.696502999999999872e+00 1.448513299999999937e+01 1.046623300000000079e+01 3.285520000000000107e-01 3.643043000000000031e+00 1.434413299999999936e+01 1.033753300000000053e+01 3.547592999999999996e+00 9.111553000000000679e+00 8.168022999999999811e+00 5.821373000000000353e+00 1.086133300000000013e+01 6.882003000000000092e+00 1.974232999999999905e+00 1.478963300000000025e+01 2.767412999999999901e+00 2.164333000000000062e+00 9.758722999999999814e+00 1.048800000000000010e-01 1.468973300000000037e+01 6.959253000000000355e+00 2.176663000000000014e+00 6.049052999999999791e+00 1.442723299999999931e+01 3.323619999999999908e-01 5.757303000000000281e+00 2.480559999999999987e-01 1.866143000000000107e+00 2.844962999999999909e+00 1.230263300000000015e+01 1.256432999999999911e+00 6.265473000000000070e+00 6.361222999999999850e+00 5.092423000000000144e+00 2.704413000000000178e+00 8.269030000000000546e-01 1.084913300000000014e+01 3.315923000000000176e+00 5.985712999999999617e+00 4.914093000000000266e+00 1.095803300000000036e+01 1.247283299999999961e+01 6.972262999999999877e+00 7.251662999999999748e+00 3.673029999999999906e-01 1.824292999999999942e+00 7.060840000000000449e-01 3.638373000000000079e+00 1.188552999999999971e+00 9.661929999999999685e-01 8.621672999999999476e+00 4.661522999999999861e+00 8.565262999999999849e+00 1.531303300000000078e+01 6.675362999999999936e+00 5.806473000000000440e+00 3.330992999999999871e+00 5.039572999999999858e+00 8.341962999999999795e+00 3.985222999999999960e+00 9.965332999999999330e+00 1.041243300000000005e+01 1.102903300000000009e+01 3.250363000000000113e+00 1.000463300000000011e+01 1.081813299999999956e+01 2.486582999999999988e+00 9.476573000000000135e+00 2.030659999999999965e-01 1.132403300000000002e+01 2.414782999999999902e+00 2.754963000000000051e+00 6.279602999999999824e+00 7.022863000000000078e+00 1.015383300000000055e+01 1.027563299999999913e+01 5.338319999999999732e-01 1.476553000000000004e+00 5.090372999999999593e+00 1.767233000000000054e+00 1.102373300000000000e+01 2.558929999999999816e-01 9.142303000000000068e+00 1.068443300000000029e+01 4.712403000000000119e+00 5.818029999999999591e-01 4.919419999999999904e-01 1.009243299999999977e+01 5.492912999999999712e+00 6.476232999999999684e+00 1.533223300000000044e+01 1.527103299999999919e+01 1.205043299999999995e+01 1.274983300000000064e+01 1.359653300000000087e+01 4.024072999999999567e+00 1.027693299999999965e+01 1.424263299999999965e+01 1.300053300000000078e+01 8.558462999999999710e+00 1.074203299999999928e+01 2.604813000000000045e+00 1.490013300000000029e+01 1.267543299999999995e+01 4.028653000000000262e+00 5.159470000000000445e-01 1.458423000000000025e+00 1.382143300000000075e+01 8.633229999999999515e-01 1.289053299999999957e+01 1.456443299999999930e+01 3.994849999999999790e-01 6.013523000000000174e+00 1.291883299999999934e+01 1.325973300000000066e+01 1.062493300000000040e+01 8.241929999999999534e-01 2.475232999999999794e+00 1.521763299999999930e+01 9.233062999999999576e+00 4.737693000000000154e+00 1.609123000000000081e+00 1.378603299999999976e+01 1.512813300000000005e+01 7.272212999999999816e+00 1.119023299999999921e+01 3.262132999999999949e+00 4.874473000000000056e+00 1.288513299999999973e+01 7.928243000000000151e+00 6.355133000000000365e+00 6.701812999999999576e+00 7.059352999999999767e+00 1.751862999999999948e+00 1.251443300000000036e+01 5.591522999999999577e+00 2.090212999999999877e+00 5.819812999999999903e+00 1.422413300000000014e+01 6.549843000000000082e+00 7.586592999999999698e+00 3.143263000000000140e+00 3.906182999999999961e+00 1.539923300000000062e+01 1.201533300000000004e+01 1.157833300000000065e+01 1.024673300000000076e+01 1.294193300000000058e+01 1.577712999999999921e+00 1.326413000000000064e+00 1.494983299999999993e+01 4.824062999999999768e+00 2.853733000000000075e+00 1.288723300000000016e+01 4.008783000000000207e+00 2.249333000000000027e+00 9.091642999999999475e+00 6.387049999999999672e-01 1.166933299999999996e+01 1.049593300000000085e+01 1.990372999999999948e+00 1.282133299999999920e+01 1.158123299999999922e+01 4.677552999999999628e+00 1.055053299999999972e+01 7.501262999999999792e+00 1.204253300000000060e+01 4.261982999999999855e+00 1.235443300000000022e+01 6.413872999999999713e+00 1.507343299999999964e+01 1.261243299999999934e+01 4.545552999999999955e+00 1.363103300000000040e+01 4.347983000000000153e+00 6.474553000000000225e+00 3.643523000000000067e+00 1.359963300000000075e+01 1.354783300000000068e+01 1.413813299999999984e+01 8.707753000000000299e+00 8.329033000000000797e+00 1.098413299999999992e+01 1.399703300000000006e+01 8.756043000000000021e+00 6.475432999999999772e+00 7.006533000000000122e+00 4.582999999999999852e-01 8.900952999999999449e+00 1.038263300000000022e+01 6.680452999999999975e+00 1.088313300000000083e+01 6.949272999999999811e+00 9.394432999999999367e+00 1.461603299999999983e+01 1.002253000000000061e+00 1.093343300000000085e+01 1.627972999999999892e+00 6.203983000000000025e+00 1.146553300000000064e+01 9.190053000000000694e+00 2.190093000000000067e+00 7.837543000000000148e+00 1.113663299999999978e+01 1.073113299999999981e+01 1.284743300000000055e+01 1.118693299999999979e+01 6.374043000000000347e+00 1.027073299999999989e+01 3.414792999999999967e+00 9.892732999999999777e+00 1.537163299999999921e+01 6.294253000000000320e+00 1.382203299999999935e+01 5.315180000000000460e-01 1.393383299999999991e+01 1.471993000000000107e+00 1.343813300000000055e+01 1.069623299999999944e+01 3.250753000000000004e+00 1.457863299999999995e+01 1.160763299999999987e+01 1.303342999999999918e+00 1.151402999999999954e+00 6.173322999999999894e+00 1.656473000000000084e+00 1.367813300000000076e+01 3.473062999999999789e+00 7.280192999999999692e+00 5.725312999999999874e+00 1.428713300000000075e+01 2.927973000000000159e+00 2.667292999999999914e+00 3.993723000000000134e+00 1.158653299999999930e+01 9.889329999999999510e-01 1.090313300000000041e+01 4.783773000000000053e+00 4.636013000000000162e+00 2.068573000000000217e+00 3.368140000000000023e-01 1.152683299999999988e+01 1.078093299999999921e+01 1.539873300000000000e+01 3.345712999999999937e+00 8.231030000000000291e-01 5.781113000000000390e+00 5.476022999999999641e+00 6.323703000000000074e+00 1.330913299999999921e+01 1.419873300000000071e+01 6.367412999999999990e+00 5.779932999999999765e+00 1.316803299999999943e+01 5.185812999999999562e+00 7.759833000000000425e+00 1.304173000000000027e+00 4.515183000000000391e+00 4.216103000000000378e+00 1.232013000000000025e+00 2.757553000000000143e+00