-7.779844729600411665e+04
-7.783220104603182699e+04
-7.784341779293371656e+04
-7.785642017271491932e+04
-7.784215683108252415e+04
-7.785147061556795961e+04
-7.785969347652273427e+04
-7.782426900571554143e+04
-7.782389484038529918e+04
-7.786136603470043337e+04
-7.783530429605988320e+04
-7.783933549534827762e+04
-7.783832427596396883e+04
-7.786008589234434476e+04
-7.783777053328607872e+04
-7.782387240687324083e+04
-7.785581780627401895e+04
-7.779605164450840675e+04
-7.786812296865343524e+04
-7.780364001751218166e+04
-7.784229813886673946e+04
-7.783399245726603840e+04
-7.785112412391509861e+04
-7.782950857133403770e+04
-7.785456008041181485e+04
-7.783664945194884785e+04
-7.782563054696870677e+04
-7.782678947003949725e+04
-7.784242046213851427e+04
-7.782490483513202344e+04
-7.786680626880357158e+04
-7.786325069367224933e+04
-7.783223801672432455e+04
-7.783756710031891998e+04
-7.779617618533318455e+04
-7.783596359133662190e+04
-7.782056722127711691e+04
-7.784921105769601127e+04
-7.785281385185173713e+04
-7.784782543683871336e+04
-7.783311967184554669e+04
-7.784880241628810472e+04
-7.781415406749122485e+04
-7.784635035195176897e+04
-7.786106843979342375e+04
-7.780828176227914810e+04
-7.783369832610791491e+04
-7.786011747534510505e+04
-7.781908731509181962e+04
-7.786030183824484993e+04
-7.786191574465727899e+04
-7.786827226930389588e+04
-7.786784102732459723e+04
-7.784829270932513464e+04
-7.786275834354452672e+04
-7.784228733751097752e+04
-7.780098519308661344e+04
-7.783557432065867761e+04
-7.782660187587651308e+04
-7.781444449249799072e+04
-7.783241180802859890e+04
-7.782758497734762204e+04
-7.782725635003778734e+04
-7.786314249594870489e+04
-7.782164505141453992e+04
-7.784634544725345040e+04
-7.786884882008083514e+04
-7.784764883485157043e+04
-7.783734823000943288e+04
-7.783602460982468619e+04
-7.779016846624911705e+04
-7.785379988527986279e+04
-7.785692433905851794e+04
-7.784474546571905375e+04
-7.780518828082598338e+04
-7.782574821182824962e+04
-7.785179392341266794e+04
-7.780825366558875248e+04
-7.784521389078795619e+04
-7.782474031255285081e+04
-7.784110015200711496e+04
-7.783227377406229789e+04
-7.785950619515310973e+04
-7.780554497349244775e+04
-7.783927667702609324e+04
-7.785852032071338908e+04
-7.781509624198901292e+04
-7.782857568305562017e+04
-7.782299440916052845e+04
-7.784298759154339496e+04
-7.785401213319895032e+04
-7.781580678706325125e+04
-7.786033980052672268e+04
-7.784771696801285725e+04
-7.781470572206450743e+04
-7.785155467324885831e+04
-7.784373069343218231e+04
-7.784263559315650491e+04
-7.785470962650289584e+04
-7.781995910511886177e+04
-7.784822741655498976e+04
-7.779110359040541516e+04
-7.784319186115681077e+04
-7.783225695884843299e+04
-7.783862194643873954e+04
-7.783741023408844194e+04
-7.783112968771577289e+04
-7.783424146489771374e+04
-7.785908824866230134e+04
-7.786320424830829143e+04
-7.781627985067077680e+04
-7.781651960047717148e+04
-7.784892917515116278e+04
-7.782067852235355531e+04
-7.781005118707382644e+04
-7.785980467980359390e+04
-7.785429619216022547e+04
-7.786471446146009839e+04
-7.783976667121602804e+04
-7.780000112307502422e+04
-7.784347635400627041e+04
-7.781833098435553256e+04
-7.781992301487266377e+04
-7.783009082517561910e+04
-7.784343959030229598e+04
-7.778817372091379366e+04
-7.785982854806957766e+04
-7.782630338086036500e+04
-7.780690175745217130e+04
-7.786661170638904150e+04
-7.785781883969782211e+04
-7.783159131293476094e+04
-7.781838351233011053e+04
-7.782247083924623439e+04
-7.785393735249855672e+04
-7.783746607067063451e+04
-7.785786267415320617e+04
-7.783842872721956519e+04
-7.786686497474908538e+04
-7.783246849395726167e+04
-7.784104453288609511e+04
-7.786419249147530354e+04
-7.785476266641877010e+04
-7.786443029245622165e+04
-7.784347538035530306e+04
-7.786539071341291128e+04
-7.779289711116069520e+04
-7.777988426716666436e+04
-7.786112020991643658e+04
-7.786284235782132600e+04
-7.783000850585063745e+04
-7.783784815438486112e+04
-7.780082818259035412e+04
-7.786227822209014266e+04
-7.785644431185000576e+04
-7.783252328727461281e+04
-7.784210506894446735e+04
-7.779723081552953226e+04
-7.786245079078859999e+04
-7.781957048632814258e+04
-7.785597036363127700e+04
-7.782383213995558617e+04
-7.780342107123370806e+04
-7.785633918468067714e+04
-7.786596301881207910e+04
-7.780470945182350988e+04
-7.785362530872852949e+04
-7.784842413731628039e+04
-7.784950418618725962e+04
-7.780288463303650497e+04
-7.780210183380637318e+04
-7.781833367834947421e+04
