-1.087027025222972121e+00 -6.336803081588619158e+00 1.193995004298955287e+01 -3.301060190469735089e-01 2.943218650888055787e+00 -3.514390808043371006e+00 -4.872783396193759664e+00 -6.686432002773654570e-01 -3.187415364464356138e+00 1.225390953284896112e+00 -5.463373040248809431e+00 4.206109146880062655e-01 -3.358455445304111553e+00 -1.036486331983190290e+00 -8.053451671184546079e-01 -4.756957760306709249e-01 -1.968613634905876264e+00 -2.835731617462966536e-01 -1.851836690770513716e+00 2.031334159048100219e+00 1.155938252068671179e+00 -2.839876236101558371e-01 -5.102200379136014874e-01 -1.769080586477488559e+00 -3.465579953153492543e-01 1.781246533421712464e+00 7.714240860870215100e-01 -1.001662279446872805e+00 -2.890837047632621726e+00 3.348250221792759551e-01 5.543987929652119950e-01 2.640322104625504984e+00 2.419681325939435190e+00 -4.255859997163407571e-01 -7.200335917601258906e+00 3.237562678887943246e+00 5.008123706688076382e+00 -5.522385519105316165e-01 -2.843165191537344150e+00 1.353252952506130091e+00 3.314513745983566295e+00 3.028113913188096085e+00 1.662424019442141909e-01 -2.570249767496191051e-01 3.315638346599274033e+00 3.229428222033864149e+00 6.361406483993341077e+00 -2.750618325596826175e+00 2.994534788905380385e+00 -3.364527363031715623e+00 -3.837552276877665758e+00 -1.344734887028676606e+00 2.717454177398644699e+00 2.625873017885332672e+00 -6.377693909645792969e-01 -1.495267333138198707e+00 1.388203503328439448e+00 -1.557827420429896748e+00 5.228200899514605204e+00 1.630303224993054689e+00 -3.570753507762821632e-01 -3.017441777304059602e-01 -6.463774450601162957e-01 1.174278446654777541e+00 -3.224433596619888487e+00 1.766742425069339983e+00 5.067474542748576560e+00 -2.483741394939417813e+00 -1.717594755637491755e+00 7.418425133299154650e-01 -1.527420523489795734e+00 5.394712753092394841e+00 4.835155298317958206e+00 1.667633074877493404e-01 9.709566202947341740e-01 6.236216375398178080e-01 2.080294137933659915e+00 3.407510555014502174e+00 2.541877641766127738e+00 2.206515258981724514e+00 2.994858747930480902e+00 3.498729703172780425e+00 -4.290708732292114469e-01 -3.982368645966519960e+00 -2.202556788227397089e+00 3.173507237874034104e+00 -6.445542756577432364e+00 -4.192690558372116350e+00 -2.845820112881146891e+00 -5.912658442423639471e-01 -5.504374939971733660e+00 -1.345617803927245115e-01 -2.095835943607704532e+00 5.487418513221413718e+00 -9.275173145734331159e-01 -4.669601952077925944e+00 3.508649534209638876e+00 3.524211908710673580e+00 3.342089858109095868e+00 -2.717842928228765942e+00 -3.511793993635815792e+00 -2.005311507581030828e+00 -2.202326417365102706e+00 -2.603098184200067777e-01 -1.740986139911797848e+00 -1.069238589420886676e+00 -1.874922113743335617e+00 -5.729159308855045651e+00 -2.370030234466994123e+00 1.417394268372725419e+00 5.646220142001803222e-01 1.850233864927276484e+00 -7.211698137630828676e-01 4.522546666171153973e+00 -4.050151672651788992e+00 5.009501818096441239e-01 3.036990904696534432e+00 -2.656931946641033715e+00 -2.426950863618563492e+00 3.082817222790086298e+00 -2.716555833879833237e+00 -2.108688889373412145e+00 5.640672729362458782e+00 -3.469343534272085083e+00 -4.156061591267379285e+00 8.339157820289760936e-01 3.245118123262240140e+00 2.976535522626641561e-01 -1.488324839808219613e+00 1.649022914437136667e+00 5.158171242701295789e+00 -4.612704462856720866e+00 -4.282979481329747706e+00 -2.564220015863917013e+00 4.795247145970256142e+00 8.216336212122556937e-01 -2.876952575193338912e+00 2.078913969642595561e+00 7.637745393292432183e-01 -5.812882148016624839e+00 -9.518980594259836003e-01 -1.143670489430844039e+00 -9.240982613069321783e-01 2.486664225254772376e+00 4.349510894892642199e+00 2.583945520947835472e+00 -6.664422329452436955e+00 -2.952613976836655052e+00 4.299579038931780062e-01 1.142068692028956445e+00 -3.644072120011916827e+00 1.900600751578988445e+00 7.238329626376818204e-01 9.172694107460762636e-01 1.673227795818917896e+00 -4.254106504662465760e+00 -1.450740964910447683e+00 -5.744071194202504671e+00 2.961612838645012458e-01 -3.042913698428457714e+00 7.873649270046825244e-01 3.045011204560816864e+00 2.551260112197858199e+00 -2.270306390568805455e+00 -3.082666556132380720e+00 2.426569826098563976e+00 5.123232004733832001e-01 6.313848270667186124e-01 2.375476345633411590e+00 1.839875403654845476e+00 -1.997450101905249964e+00 -7.425264268273505941e-01 -3.596076819112213663e+00 3.116577352750318664e+00 3.193276451715307829e+00 4.600540572795196681e+00 3.251690891927064175e+00 -2.054805247526994560e-01 3.678030224931933545e-01 -4.382687384387017882e-01 -7.397349284723307328e+00 -4.139275885781081854e-01 3.101383160252414450e-01 1.290419814036132706e+00 1.931725500581058963e+00 -3.505236651591235320e-01 1.619576581717493413e+00 1.461135935850787160e+00 3.954299910434567522e+00 6.026833429944699283e+00 -1.100028580763686259e+00 -5.458626269200069991e+00 1.087078447290448224e+00 1.299416618961790615e+00 1.197126813896533637e+00 1.350333721735499148e+00 2.250513008355818023e+00 2.404101982156133133e+00 -2.369501615613337719e+00 -5.318147351502844344e-01 -1.303694420755146410e+00 -4.852596120943903912e+00 1.234681018261371577e+01 -7.269161783814949374e+00 -4.306310187564431402e+00 -5.731614712577039583e+00 -2.139597151471407610e+00 -7.215282255733928451e+00 -1.224397993161928211e+00 5.261418526662963169e-01 -2.814340037392814686e+00 -1.426455350882728679e+00 1.766290425096223027e+00 -4.203989015038013477e+00 -2.814250048774731283e+00 2.631108812795771801e+00 -5.989709268330165592e-01 -2.848249805569402771e+00 -2.744678562582635872e-01 -6.540732716786232803e-01 -2.323785854964859343e+00 2.413065362737931263e+00 -7.054347639594620745e+00 8.669554888238649726e-01 -1.661665029726191234e+00 -2.931792153274141555e+00 -3.404831465298985282e+00 2.723517353374778516e+00 1.947269363137802634e+00 -1.799140384462124320e+00 -4.881388879185922236e-01 5.280115590397354008e-01 -2.004834825015525457e+00 1.335427492815461692e+00 3.331604898550672544e+00 -3.543103347860126373e+00 5.252699915122350127e+00 7.026795181620130393e+00 -4.400155460708726762e-01 5.210510165640724445e+00 1.954460225053692157e-01 -7.418054894413325107e-01 2.921390497465030101e-01 -2.002318743253908462e+00 1.322580717697851294e-01 -4.422744146509726804e+00 -9.484424964915744161e-01 3.632160712301700123e+00 1.467055644258661751e+00 -2.196591314179468402e+00 -7.684876289237858593e+00 -2.141523422119070708e-01 -2.937064457852489152e+00 8.409322717140533143e+00 4.891892350688636704e+00 -1.004907011904629055e+00 -4.804226981613647141e+00 9.858211973401158623e-01 -6.042899226486328601e+00 -3.015517563539095391e+00 -2.563000284423377906e+00 4.106885125477743870e-01 -9.705637556992150472e-01 -1.125138490533051039e+00 -3.708871638342209121e+00 9.370910750961756186e-01 -5.681007170649537974e-01 2.010807498152900497e+00 -5.911971957822831136e+00 -1.467482961639390071e+00 4.309076180573982562e+00 7.279415858290402275e-01 2.459221810504681471e+00 -2.991118820962928027e+00 -1.473400613164565609e+00 4.995010051040262411e+00 -1.952362718921332840e+00 -7.064013959838820744e-01 -3.847859316082621106e+00 2.755221114856632347e+00 4.905130447739743382e-01 4.317714059468656274e+00 -1.159054943578411212e+00 8.830788780810671090e-01 9.003464083396173212e-01 2.294730329958036386e+00 -1.332379192655465117e+00 -2.186430313646146317e-01 2.818739709486089318e+00 -5.261839159174917846e+00 -2.164458178434186753e+00 3.557210477851582286e+00 3.102186887167068807e+00 1.405449950539324311e+00 -8.531841449330300753e-01 3.587995326987634126e-01 6.862758272149976913e-01 -1.402857764117842576e+00 -1.707427070235397748e+00 -2.775126597176718057e+00 -1.545413104899762136e-01 2.831659503939516043e+00 3.029643205474842116e+00 -9.278582428808012095e-01 -9.774553411823925231e-01 -3.652266226464269572e+00 1.724325390049468165e+00 1.317529013788976799e+00 2.753168860143652363e+00 6.837792344169545622e+00 2.847351976271266683e+00 -7.145815156338809260e+00 -3.681829801497758403e+00 6.500267149227087593e+00 9.089956000891353805e-01 2.610889141643406131e+00 2.456937642267383204e+00 5.923271957150753053e-01 -1.194073885750464026e+00 5.039655718464558509e-01 1.360096715466554418e+00 -1.416839424264655589e+00 3.866564093127134449e-01 4.283820232132985240e+00 -8.089817357303804579e-01 -1.852907298215370702e+00 -1.814135573558895986e+00 -1.725279269401154059e+00 -9.082299255044128383e-01 -3.444274762156700476e+00 4.318337809147144157e-01 4.870106363360942048e+00 -2.102912134313121850e+00 1.939208954060888557e+00 3.477723274388026642e+00 -2.765348691046094931e+00 2.690107407694060093e+00 9.697044929516857037e-01 -3.749435936270908876e+00 2.361337333960121243e-01 -1.193635255514890803e+00 -1.125332351727436953e+00 1.898671395607276713e+00 4.623965381413362330e+00 -9.121518865908322393e-01 4.859424457284085008e+00 -6.482028770334583356e+00 4.244931779383338544e+00 -5.917553823247385658e-01 3.663318371426956266e-01 -2.923421669130344958e-01 -1.349834413460303806e-01 1.109632166085564808e+00 2.341431851640035644e-01 -2.629405713920956345e+00 3.327882455086061952e+00 4.383191320648285760e+00 -8.036533810984836101e-01 -4.394973658969137276e+00 2.607976595741547055e+00 1.271161221324899060e+00 8.947321470125519927e-01 -4.972036213953864525e+00 1.049053165365459606e+01 1.469722392677984102e+00 1.523051704637006898e+00 -2.680306875853746718e+00 8.386101025688897925e-01 -1.670877807335249710e+00 1.622263898963806072e+00 -1.679001465555159722e+00 1.886545557875684231e+00 -3.113155214159769368e+00 3.259187200923763239e-01 2.324345841279676694e+00 -1.527054398369364296e+00 2.904134280061324791e+00 1.359183973768849585e+00 5.880653347626374483e+00 -2.216599126413831833e+00 2.979372478089310938e+00 -1.775774197000881571e+00 1.106518559899873466e+00 6.139100658762388640e-01 3.435578262105104752e+00 -8.918879924604363740e-01 1.069001533689820649e+00 1.008865482658956481e+00 1.767666479621889497e+00 -1.350225221173123880e-01 -4.762746342442519598e+00 -1.383625910881696619e+00 -1.947261135607006588e-01 1.835382143398764099e-01 2.897421129152290220e+00 -1.382407207882508038e+00 1.194739801524282496e+00 7.489243604627550122e-01 -3.558783478895682695e+00 -5.128777874711153650e+00 7.065181240770532778e-01 4.747044099917948401e+00 4.494054727023871543e+00 2.737151914566126276e+00 -3.019740857940925949e+00 -1.012226428989209337e+00 -3.001951907918165574e+00 -6.957055031046714078e+00 6.688592243828334283e+00 6.023899800995176079e-01 -2.168371397769135012e+00 -1.972903263774751226e+00 -3.473252125620960307e-01 3.115904752107728215e-01 -6.030607295476787755e+00 2.041979041236374748e+00 -1.607554102341527846e+00 2.584949279704973346e+00 3.989248404374177603e+00 2.674962066160257557e+00 1.002054115601042295e+00 7.046818420474737499e-01 1.322246474259254900e-01 3.005804449213492102e+00 5.128229715471855243e+00 1.462728477280528905e+00 -5.043565852475458300e+00 6.168645207630912175e+00 -1.490145695217556465e+00 -3.669159404071592245e+00 9.985219337860936628e-01 1.810308743297307510e-01 -3.522183308148732817e+00 2.752948259474178538e+00 3.051894562513197684e+00 2.200667027247641627e+00 2.181207374252575715e+00 -6.705689567043539023e-01 2.301583863111281048e+00 2.694723052470735070e+00 -5.006010259714798183e-01 5.890912050087901593e-03 5.102714599810777296e-02 -4.970410762400938043e-01 9.315945703036312420e-01 1.235540640963373349e+00 4.454662852233631232e-01 2.615161801230013516e+00 2.806906977539111558e+00 -7.655074630031954985e-01 1.745882034956218812e-02 5.829493532694178803e-01 3.233476167185599937e-01 -2.351934808922075071e+00 8.618766854854307269e+00 8.774661594160260147e-01 -1.107178305025594556e+00 6.036144423702638484e+00 -1.230186369609468322e+01 1.095958009902260333e+00 6.683944203149150276e+00 -5.672331239424933003e+00 5.216475639688652466e-01 1.253378956170910774e+00 9.136642095953109166e-01 -2.913877219186064238e+00 -1.202662399460360021e+00 1.207003758929116266e+01 1.181987643010828405e-02 -4.843825058894466462e-01 -3.653606285542702725e+00 -1.274793161950751763e+00 1.589276128457068060e-01 1.780254601740094422e+00 -1.922670074498477932e+00 -8.426811876509905375e-01 8.464524820797043603e-01 2.710387756886048383e+00 -5.233676321259483899e-01 1.341078263810435045e+00 -3.094702919466564506e+00 -4.445901560377015116e+00 -3.547122496654076418e+00 -2.039800288237402504e-01 -2.544092904433008062e+00 -3.747095203759386317e-01 -8.241476460911731916e-01 3.657094244379622161e+00 3.264358204029182087e+00 1.009683093531830167e+00 1.626821951024907564e+00 1.340107929397156949e+00 -1.935738478726911405e+00 -1.596030417020083414e+00 3.594664769139313543e-01 -1.595361930142891405e+00 -1.627043580135730583e+00 5.383638496640693605e-01 -1.449044036683729164e+00 3.038366445001525751e+00 1.985792204987692378e+00 -3.018139574759712840e+00 -5.553611569580314544e+00 2.756267039709100697e+00 -1.061854894751960821e+00 -3.031269171248443528e-01 -2.446391490448663220e+00 -2.993616390780253322e+00 -1.419829103267729264e+00 -2.722215346626277732e+00 1.753056441810515675e+00 -6.101414968171012809e+00 -1.204966108083299403e+00 -2.774461709844249224e+00 -1.915158853102210790e+00 -6.419735563573087944e+00 3.956434440455509627e-01 3.214292650692882169e+00 -3.591747595251382208e+00 -5.476912470615326711e+00 -9.293510254996389941e-02 3.452025610387407628e+00 -3.946409708401000138e+00 2.344322800273554552e+00 5.406001953786147840e-03 2.409812916970053731e+00 -3.650498335784433390e+00 5.972265874600847013e+00 2.654787132206596123e+00 -1.131640810965432564e+00 2.907002602985153672e-01 -2.275004824874117537e-01 -3.061924950995130068e+00 -7.512815480358699116e-02 2.536568313299197186e+00 -2.322863343074334230e-01 -3.159471070335695853e+00 3.056012955897376759e+00 -2.347340247193065166e-01 -8.456225813327037599e+00 2.238680276408841208e-01 -1.836340650736522973e+00 2.393203589175200430e-01 -2.453151949659775788e+00 4.013158123088644280e-01 2.143687262718474873e+00 -1.738008802204918490e+00 -3.404603151319389731e+00 -1.457447430950710388e+00 5.020747824253513514e+00 4.844980512750659329e+00 2.749943153850862299e+00 2.222931239802866443e+00 9.815372248986632409e-01 4.388666228172489525e+00 5.602362774871920692e+00 -9.656159243666432301e-01 8.214505586520399749e-01 -2.655492128751696157e+00 -8.282310724694683657e-01 -3.880887710022665527e+00 2.222298234152233487e+00 2.292643108239172278e+00 2.364355809320981272e-01 -7.054439170874729492e-02 2.631245595495259160e+00 5.309494045987928956e+00 -1.797697481248738738e+00 1.703779702989302036e+00 -2.063323313004448156e+00 1.552845650532790112e+00 -5.611309700392126398e-01 -4.066436527200866236e-01 -2.329337381369603610e-01 2.431244092032162296e+00 -9.531692129339983666e-01 7.444979488943929136e-01 2.028699292310613522e+00 -1.729925767418314608e+00 -1.570995583469234180e+00 -1.790110669413281563e+00 2.103518914709342713e+00 -9.460000511305839410e+00 2.057820637563806176e+00 -8.107366680492125610e+00 4.804233152261744522e+00 -3.897813283532498008e-01 3.580225452591961344e-01 1.759981965858227415e+00 -2.224759294301649870e+00 -1.270197057559717957e-01 4.574315318382271123e+00 8.095015099884310672e+00 2.733429471101514796e+00 4.042483613949718446e+00 6.480126668058634465e-01 1.421017981467782021e-01 1.287590057662910237e+00 2.323348767391310243e+00 1.451624910250365774e+00 9.544527077382073399e-01 -5.870682094522040373e+00 1.484159138121962540e+00 -1.097922847100530619e-01 5.874122745056881145e-01 1.429366868343238339e+00 -1.513324706353185167e+00 -4.653926963249118032e+00 -6.641941629993137752e-01 4.185644192465833413e+00 -2.887595914719588985e-01 2.355697361599318196e+00 1.623230119611686062e+00 2.323880471569015782e+00 -1.619862488412661561e+00 2.258293681385661333e+00 4.164134855861161277e+00 6.677541127306998447e-01 -8.124223862652214523e-01 -6.007661226306826308e+00 -3.386405395860193623e-01 2.040544879774459641e+00 2.633102960572503703e-01 1.505761548668767269e-01 -1.329339634246939461e+00 3.223551708162669005e+00 2.432721962251432224e+00 -1.597749970956491961e+00 4.421331068095477046e-01 -6.141805459511643361e-01 4.129385365322685963e+00 -1.774498415506794158e-01 -2.805485671594066144e+00 4.439665092033486360e+00 -1.241482975080937523e-01 -2.117563309778476732e+00 -2.537769532795444150e+00 7.107609588645250054e-02 -9.543740319749687284e-01 -7.236673835804080523e-01 4.153257545927894340e-02 -3.275351213614271284e+00 3.808933325223716970e+00 1.273737981126137786e+00 2.384801223349568844e-01 1.357817175215328742e+00 3.596526247981956526e-01 3.967614626366212427e+00 -1.413646113874375887e+00 -5.034836442300677284e+00 -1.803406873400634991e+00 3.841377564477230333e+00 -5.350250662448989836e+00 4.458495338922642048e+00 -2.144939390061523010e+00 -4.848334774212140208e-01 2.685895940367748480e+00 4.666094967076040989e-01 -3.319551565934222154e-02 -1.664582203614123124e+00 1.420071815426217528e-02 -3.524417596980578882e+00 9.601163342500499409e-01 -6.452261049693214234e-01 -3.719342713942413448e-01 4.110798344812692240e-01 -1.791013126697490909e+00 -2.298550989571527259e-01 1.754105966207707645e+00 9.370231979671067579e-02 2.921450147063302971e+00 2.737534494748149694e+00 -3.300857073303203215e+00 1.669750121395493947e+00 -3.474634865015398422e+00 1.818984674521913369e+00 1.821090408185068732e+00 -1.258712453009555254e+00 8.288922574130788590e+00 -2.852302378707212149e+00 -4.326582309225623924e+00 -1.259241586083886588e+00 -2.758110520828126688e+00 -4.543329923183060948e-01 1.543623616951586008e+00 1.167622374240641969e+00 -3.939948525622599118e-01 9.291772189115690139e-01 -8.816596290187204144e-01 -6.965016195533396681e-01 2.137677051471841838e-01 -1.844122352207715254e+00 -1.136833925559866509e+00 -8.770758659238807597e-01 1.651586818721506145e+00 -3.218178616332067588e+00 -2.027237877152936185e-01 1.793363115181159317e+00 6.446856590401451870e-01 2.811856351533708498e+00 -5.515967530863595591e+00 -1.478646178267825517e+00 2.390677223000088780e+00 8.731112245214560641e-01 3.183308283935021521e+00 -1.109505667799573159e+00 -4.555038727947419708e-01 1.345026964371942357e+00 6.380835797968595902e-01 -7.978211930494534698e+00 -2.466099512029640284e-02 -3.045882808604540415e+00 -3.551916061784219814e+00 -1.808180383924462564e+00 -1.080832208754099133e+00 -1.734353207428026566e-01 -3.793462482002789571e-01 -1.075090420699692517e+00 3.023261726901029789e+00 -3.309170993172775965e+00 2.559605913749265937e+00 -1.725447933782476406e+00 -1.029713017255208696e+00 -3.163103525182223930e+00 1.182576939904107061e+00 1.074549460549841573e+00 8.240833685068278402e-01 -1.323881181784327454e+00 8.428668213145801280e-01 7.167110062922107394e-01 -1.550195871395735336e+00 -1.083658879803272468e+00 -5.678589305036801704e+00 5.888103890983019006e+00 -1.391703289240878050e+00 -6.860053471400722191e-01 5.756597609839737562e-01 2.195927969509023470e+00 1.934194274040597517e+00 -1.464155953873671756e-01 -5.366280463543384727e+00 -2.181864034054248780e+00 -2.500059159611680570e+00 1.305425287546399193e+00 3.028142709545882938e-01 -1.329008476132391980e-01 -2.056336082475764826e+00 -5.484708570265411920e-01 -7.573349538191829211e-01 -1.309915462478432158e+00 -5.518390024462405119e-01 4.012001126570427512e-02 -1.320590683686517330e+00 1.020098633299159951e+00 -3.170513445105561878e+00 -4.215308040530902467e+00 5.868687432524634096e-01 -1.548283484706290514e+00 -2.079952695405617114e+00 -1.843816390906231284e+00 -7.330879063420709940e-01 9.334987294622794085e-01 3.419265125418915474e+00 1.158202879920328554e+00 1.950960439141253167e+00 2.108327392239053744e+00 -1.395371739534639222e+00 9.502715794317074804e-01 1.191185508220318878e+00 -9.388147427979819382e-01 8.715783326899867456e-02 -8.154043519581736232e-01 -5.005398337111829354e-01 -2.180246295811443247e+00 2.924269104802355024e+00 3.776270027962755016e+00 2.571114172450467805e+00 -1.599164592032765730e+00 1.577830090457512657e+00 5.034876037292634443e+00 -1.800258300209059525e+00 -2.536613564718576352e+00 8.918242290967658414e-01 -5.900682242908403957e-02 -7.068477395295765832e-03 -2.191723187051484167e+00 2.793391715544309317e+00 3.647818731848242013e+00 -3.083313445741233116e-01 -2.305037883383665775e+00 5.278017570044319928e-01 -3.713773704034727396e-01 -2.935441063182261612e+00 1.028346218701687853e+00 1.836883153548398040e+00