-6.462730530171114651e+01 -5.691123281245281618e+01 8.824039542403083303e+00 -5.691123281245281618e+01 5.138710323821526771e+01 -1.006557890920775833e+01 8.824039542403083303e+00 -1.006557890920775833e+01 -4.035998163024209440e+00
-5.771696845171528878e+01 -1.641020114946449837e+01 4.254003798635804401e+01 -1.641020114946449837e+01 -1.050603025817613911e+02 -2.045208846184874929e+01 4.254003798635804401e+01 -2.045208846184874929e+01 -1.545088210033698317e+02
-4.998536510787143783e+01 9.147737696786432338e+00 3.741852034115476844e+00 9.147737696786432338e+00 -8.132942780172332675e+01 -2.035806440368153503e+01 3.741852034115476844e+00 -2.035806440368153503e+01 -8.600337313224000013e+01
-3.817130900835842766e+01 2.552369837590688562e+01 3.014022135564467675e+01 2.552369837590688562e+01 -1.097525333063156268e+02 1.855168287930425208e+01 3.014022135564467675e+01 1.855168287930425208e+01 -8.587669427774771691e+01
-5.026458495814461713e+01 3.504343912852667842e+01 1.266468323639867322e+01 3.504343912852667842e+01 -6.525780449786822146e+01 -1.069382727341907824e+01 1.266468323639867322e+01 -1.069382727341907824e+01 -2.157033595359889311e-01
-5.768875022042163181e+01 -1.220927159412608809e+01 1.950039308611821198e+01 -1.220927159412608809e+01 -9.532405665280938933e+01 -5.806235818461456866e+00 1.950039308611821198e+01 -5.806235818461456866e+00 -5.933816325379308410e+01
-9.741549614639706078e+01 3.136049291701411557e-01 1.041831202576563520e+01 3.136049291701411557e-01 -3.206896945267506283e+01 -2.755904164430163306e+01 1.041831202576563520e+01 -2.755904164430163306e+01 -4.933076455524447823e+01
-5.476522018156276772e+01 5.751061077796927101e+00 3.548692672393149650e+01 5.751061077796927101e+00 -2.648340709509514923e+01 -1.106503087119477158e+01 3.548692672393149650e+01 -1.106503087119477158e+01 -6.011007704882685232e+01
-6.392669929776739934e+01 -2.601309818904242022e+01 -3.525356390331555012e+00 -2.601309818904242022e+01 -2.683667059346175421e+01 2.628967512656303640e+01 -3.525356390331555012e+00 2.628967512656303640e+01 -3.500362888877539547e+01
-6.384976962304816794e+01 -1.172247385970647571e+01 -3.408608769080613854e+01 -1.172247385970647571e+01 -2.807840909344399449e+01 -2.495413943961803049e+00 -3.408608769080613854e+01 -2.495413943961803049e+00 -4.693100709612952670e+01
-8.115148267660835302e+01 -1.299482443694749634e+01 8.897888429101781682e+00 -1.299482443694749634e+01 -8.040373364412114654e+01 -8.671422118870371065e+00 8.897888429101781682e+00 -8.671422118870371065e+00 -1.198674085059445957e+02
-7.430880743677674616e+01 -4.771393738329289924e+00 8.143930613539943408e+00 -4.771393738329289924e+00 -1.156897841710051580e+02 -2.482697391946969478e+00 8.143930613539943408e+00 -2.482697391946969478e+00 -5.822810189120186664e+01
-1.864893334224994348e+01 -3.310016467080425429e+01 -1.075584774158963164e+01 -3.310016467080425429e+01 -4.183960736212030440e+01 -7.295298914839264404e-01 -1.075584774158963164e+01 -7.295298914839264404e-01 -7.384911904954005024e+01
-3.209498864026693354e+01 4.872496061535619560e+01 6.855229571277758893e+00 4.872496061535619560e+01 -4.450743522277824127e+01 -3.054518057289429933e+00 6.855229571277758893e+00 -3.054518057289429933e+00 -1.605080139940995565e+01
-6.491666155212702449e+01 -1.905446755765407829e+01 1.916529070709961502e+01 -1.905446755765407829e+01 -6.929324600460024186e+00 -3.161142639589629511e+01 1.916529070709961502e+01 -3.161142639589629511e+01 -3.075844437107439688e+01
6.672523515118847781e-01 9.136636299538801964e+00 -1.951205278935970355e+01 9.136636299538801964e+00 -1.495938814977040821e+01 -3.883219380905119866e+00 -1.951205278935970355e+01 -3.883219380905119866e+00 -2.063948097044717400e+01
-8.044483651964181092e+01 -1.138255409724438927e+01 1.663703164377081123e+01 -1.138255409724438927e+01 -1.020427513009502363e+01 1.938156174330528358e+01 1.663703164377081123e+01 1.938156174330528358e+01 -7.814484454215855180e+01
-7.277701393210422509e+01 9.553941307103885450e+00 -8.670364773908021405e+00 9.553941307103885450e+00 -7.272304207633996498e+01 -2.046638366485229454e+01 -8.670364773908021405e+00 -2.046638366485229454e+01 -7.068869986977956898e+01
-8.144538418087739728e+01 -3.335517104384706499e+01 1.946043334458725838e+01 -3.335517104384706499e+01 -7.262390448329163917e+01 3.143398013081522535e+01 1.946043334458725838e+01 3.143398013081522535e+01 -9.471056308181101713e+01
-6.650215009629202711e+01 -2.631393312488243552e+01 1.634523724459002958e+00 -2.631393312488243552e+01 -8.422113700033901296e+01 -1.380581163499401143e+01 1.634523724459002958e+00 -1.380581163499401143e+01 -4.232834779033612449e+01
-3.306635837037129022e+01 1.939267039455392583e+00 -2.303580087731552872e+00 1.939267039455392583e+00 -6.199988193534661463e+01 -3.252616755894171519e+01 -2.303580087731552872e+00 -3.252616755894171519e+01 -1.118209159522917560e+02
-1.077132048705543923e+02 1.126258321987256172e+00 1.324905924627569043e+01 1.126258321987256172e+00 -4.605656455636567159e+01 6.148144447176095895e+01 1.324905924627569043e+01 6.148144447176095895e+01 -5.977652236757853643e+01
-2.658724138083137589e+01 2.539804864977702437e+01 2.842001923768065552e+01 2.539804864977702437e+01 -5.056431407115386634e+01 1.524668129403644024e+01 2.842001923768065552e+01 1.524668129403644024e+01 -6.430763681233358398e+01
-1.098819957336221762e+02 -2.071021251154037301e+01 -5.612392051159644346e+00 -2.071021251154037301e+01 -6.799800885196724209e+01 -3.169506858318457354e+00 -5.612392051159644346e+00 -3.169506858318457354e+00 -1.105797583967399333e+02
-9.455421952321977130e+01 -9.528165108556184038e+00 9.692864667173775928e+00 -9.528165108556184038e+00 -8.494767770776839200e+01 -2.182290782956002673e+01 9.692864667173775928e+00 -2.182290782956002673e+01 -9.604159129605422152e+01
-6.792339797172712679e+01 -3.170106967955787169e+01 4.513137262190474175e+00 -3.170106967955787169e+01 -2.562410690074926478e+01 -2.981895070862771391e+01 4.513137262190474175e+00 -2.981895070862771391e+01 -1.692516430969214980e+01
-9.268221712910619203e+01 3.219469638974416625e+01 2.278872461141559569e+01 3.219469638974416625e+01 -9.776493766850450129e+01 -8.183168307289163224e+00 2.278872461141559569e+01 -8.183168307289163224e+00 -1.094441748049817420e+02
-2.438790680810326350e+01 2.344529563124930860e+01 2.600051154222541072e+01 2.344529563124930860e+01 -1.868783140240208596e+01 -2.775743264278277778e+01 2.600051154222541072e+01 -2.775743264278277778e+01 -3.787308461568999718e+01
1.663714976579399618e+01 6.243136234611911917e+00 -5.048850694458634436e+00 6.243136234611911917e+00 -3.860662095493540846e+01 -3.516326812841140992e+01 -5.048850694458634436e+00 -3.516326812841140992e+01 -7.378787136115727208e+01
-4.432167563219359607e+01 -9.154526053859134427e-01 3.206811366307191236e+01 -9.154526053859134427e-01 -1.447181067662314646e+01 -3.138997763546043096e+00 3.206811366307191236e+01 -3.138997763546043096e+00 -1.124531223201655479e+02
-2.450440968932303676e+01 -1.293334106078288137e+01 -6.563276542765246191e+00 -1.293334106078288137e+01 -5.718354740971616224e+01 2.540618437124040341e+01 -6.563276542765246191e+00 2.540618437124040341e+01 -4.688961143766485407e+01
-4.934511796747888468e+01 -7.545468181406433494e+00 -9.603325667646547714e+00 -7.545468181406433494e+00 -3.864340551109224720e+01 -1.026899969737328178e+01 -9.603325667646547714e+00 -1.026899969737328178e+01 -2.561450294911657011e+01
-8.524005681096292619e+01 1.100392087752085413e+00 -1.633697075091586903e+00 1.100392087752085413e+00 -1.038723516896120174e+02 2.831767678699566204e+01 -1.633697075091586903e+00 2.831767678699566204e+01 -2.631556144520694929e+01
-4.462745780856504041e+01 9.661473792685340456e+00 6.687588044488538941e+00 9.661473792685340456e+00 -7.618172904929701872e+01 -2.328593882511434643e+01 6.687588044488538941e+00 -2.328593882511434643e+01 -9.454195971838412049e+01
-6.811900064163572210e+01 5.643370091892519014e+01 -1.928630455643292407e+01 5.643370091892519014e+01 -7.313375118173955514e+01 -2.902460190393849260e+01 -1.928630455643292407e+01 -2.902460190393849260e+01 -6.779014042468858747e+01
-4.114453622989267956e+01 3.778125907986671450e+01 4.139646751192623242e+01 3.778125907986671450e+01 -1.370352184289134101e+01 2.779912666526281129e+01 4.139646751192623242e+01 2.779912666526281129e+01 -3.373291240757422571e+01
-2.308458771898044493e+00 -8.522643813997964557e+00 2.725580554878697104e+00 -8.522643813997964557e+00 -9.445197822599482151e+01 -4.034268726501591296e+00 2.725580554878697104e+00 -4.034268726501591296e+00 -4.380185415143093763e+01
-7.803504932416694828e+01 -2.741603491079808208e+01 3.589490722338592121e+00 -2.741603491079808208e+01 -5.915524368092412288e+01 5.843814863544256610e+00 3.589490722338592121e+00 5.843814863544256610e+00 -2.686588588164476121e+01
-7.943080809079363291e+01 4.306991720275759050e+00 2.267756191352269468e+00 4.306991720275759050e+00 -5.539878073741748921e+01 1.214182787114545725e+01 2.267756191352269468e+00 1.214182787114545725e+01 -4.710415960743908670e+01
-8.270928166997349251e+01 -2.913412487647847993e+00 1.643210976706829030e+01 -2.913412487647847993e+00 -1.238044798210916895e+02 1.851581080644753641e+01 1.643210976706829030e+01 1.851581080644753641e+01 -7.049859310038137039e+01
-8.735384974355662280e+01 -1.345056079003768268e+01 -3.313044624704523500e+01 -1.345056079003768268e+01 -9.686704650199827427e+01 1.378269957513682442e+01 -3.313044624704523500e+01 1.378269957513682442e+01 -8.692709062237729256e+01
-5.445253924147228730e+01 -1.212235873369603700e+00 2.460565876778457195e+01 -1.212235873369603700e+00 -1.293725288970306053e+02 -5.358008431797883553e+00 2.460565876778457195e+01 -5.358008431797883553e+00 -1.060658182937354184e+02
-7.644531531349028342e+01 -9.596120996953940718e+00 4.701290191385869122e+00 -9.596120996953940718e+00 -3.534645139479599862e+01 6.216182448485097822e+00 4.701290191385869122e+00 6.216182448485097822e+00 -2.378018579950098399e+01
-7.466778202647702756e+01 -2.734935965218277687e+01 4.960753490699609358e+00 -2.734935965218277687e+01 -5.740783519418997116e+01 -6.687013322910984492e+00 4.960753490699609358e+00 -6.687013322910984492e+00 -1.244040604849369958e+00
-1.740861255038402078e+01 1.488843215653369256e+01 2.450044017805051055e+01 1.488843215653369256e+01 -8.606266101542982483e+01 2.175373649040133373e+01 2.450044017805051055e+01 2.175373649040133373e+01 -5.309522722693172625e+01
-1.481107654685456225e+02 1.854026120519594301e+01 -3.462040364346055554e+01 1.854026120519594301e+01 -8.006532371232474077e+01 7.937421736653219817e+00 -3.462040364346055554e+01 7.937421736653219817e+00 -6.249670047861394551e+01
-3.561840986978231172e+01 -6.959771502603393500e+00 -9.002917261478978972e+00 -6.959771502603393500e+00 -8.348418980246665910e+01 -1.617314361509690812e+01 -9.002917261478978972e+00 -1.617314361509690812e+01 -5.201180136798998177e+01
-8.231871895416871610e+01 -7.318932777344520524e+00 -1.336489680853840234e+01 -7.318932777344520524e+00 -4.847687354593740139e+01 -3.108262020976543027e+01 -1.336489680853840234e+01 -3.108262020976543027e+01 -8.599430551714725368e+01
-1.019609150664394974e+02 2.323650990208704670e+01 4.019736878957914428e+00 2.323650990208704670e+01 -6.539009516336653860e+01 -3.371037004264546511e+01 4.019736878957914428e+00 -3.371037004264546511e+01 -8.768262695887958103e+01
-5.514413018788695808e+01 1.066349850883423400e+01 -3.413338101360499532e+00 1.066349850883423400e+01 -5.291037088198373795e+01 1.693473096709372427e+01 -3.413338101360499532e+00 1.693473096709372427e+01 -4.705026809916282104e+01
-6.362390208793730295e+01 7.369370791890966998e+00 -8.001806745919184394e+00 7.369370791890966998e+00 -2.838978949743213676e+01 6.891717326560629076e+00 -8.001806745919184394e+00 6.891717326560629076e+00 -4.332614143398779305e+01
-2.921620051059025158e+01 1.904242256200843997e+01 -5.589897923990369222e+00 1.904242256200843997e+01 -5.308389012279770469e+01 2.034460235498261937e+01 -5.589897923990369222e+00 2.034460235498261937e+01 -3.038589819332028341e+01
-2.661374191326670413e+01 -1.508351676219338877e+01 -1.714361944146263994e+01 -1.508351676219338877e+01 -4.898232309336738410e+01 1.580318083226020498e+01 -1.714361944146263994e+01 1.580318083226020498e+01 -2.846486859903809474e+01
-7.421136590976232128e+01 -2.664864945919423533e+01 3.672982658894217423e+01 -2.664864945919423533e+01 -7.459889261556651263e+01 2.690840790745713207e+01 3.672982658894217423e+01 2.690840790745713207e+01 -2.579572851341622197e+01
-7.282233091495062638e+01 -3.145855073354393738e+00 4.942135504794301859e+00 -3.145855073354393738e+00 -5.151876306377106118e+01 5.220570177234074905e+00 4.942135504794301859e+00 5.220570177234074905e+00 -4.955627789293000518e+01
-5.821072876245337824e+01 7.530584772476098254e-02 -2.085267102233118308e+01 7.530584772476098254e-02 -2.333654880661583775e+01 -1.104061057119474043e+01 -2.085267102233118308e+01 -1.104061057119474043e+01 -7.999288872315833032e+01
-2.022266340797237305e+01 -7.176775126015334294e+00 -8.412965833952453565e+00 -7.176775126015334294e+00 -1.944508891830137998e+01 2.268724323002943422e+01 -8.412965833952453565e+00 2.268724323002943422e+01 4.237903141659273842e+00
-8.213774988627579887e+01 4.689100823251777683e+00 -3.421923756377897519e+01 4.689100823251777683e+00 -9.245884540983939814e+01 2.135792150779570520e+01 -3.421923756377897519e+01 2.135792150779570520e+01 -7.959204371246437404e+01
-8.772897847182830944e+00 -3.961408329325929856e+01 -9.681381663762293144e+00 -3.961408329325929856e+01 -1.617766374517013617e+01 1.112021308402243003e+00 -9.681381663762293144e+00 1.112021308402243003e+00 -4.509036424476089167e+01
-6.749607676143757828e+01 -1.407850200506427463e+01 -5.394878385709053426e+00 -1.407850200506427463e+01 -8.279221364234729208e+01 3.261521695244181118e-01 -5.394878385709053426e+00 3.261521695244181118e-01 -3.162299232780126346e+01
-5.005107009331662482e+01 3.253105230082673671e+01 -3.237384175719779478e+01 3.253105230082673671e+01 3.503468544820147201e+01 -1.177735940091048761e+01 -3.237384175719779478e+01 -1.177735940091048761e+01 -4.025610542065581399e+01
-3.226167814374878162e+01 2.376747785888155384e+00 1.399925883884647071e+01 2.376747785888155384e+00 -7.315263569748472605e+01 -2.134369093028124453e+01 1.399925883884647071e+01 -2.134369093028124453e+01 -5.883279399064247883e+01
-9.895935146690639783e+01 -4.816501147068439792e+00 -1.471629829039543402e+01 -4.816501147068439792e+00 -1.225655066613235391e+02 9.136066320306944766e-01 -1.471629829039543402e+01 9.136066320306944766e-01 -8.418605909539185461e+01
-8.771866344112468994e+01 4.637771946670784473e+01 -3.077523244820988424e+01 4.637771946670784473e+01 -2.318900676074945011e+01 -1.794123115764050880e+01 -3.077523244820988424e+01 -1.794123115764050880e+01 -7.467046364613555909e+01
-5.575227095729303528e+01 4.733640366934312738e+01 -1.853982555298595614e+01 4.733640366934312738e+01 -2.234450366455726567e+01 -4.117529141193320186e+01 -1.853982555298595614e+01 -4.117529141193320186e+01 -2.040378306772614891e+01
-2.857163936738626475e+01 -1.819097987390108528e+01 1.354425885952307063e+00 -1.819097987390108528e+01 -7.973047223507816739e+01 3.139085274068116771e+00 1.354425885952307063e+00 3.139085274068116771e+00 -2.744512449785323938e+01
-6.221374750596905301e+01 1.230234862906030990e+01 2.080780010139613623e+01 1.230234862906030990e+01 -4.195666698336958689e+01 2.771530963676282511e+01 2.080780010139613623e+01 2.771530963676282511e+01 -4.105303316380197032e+01
-3.157184963698592739e+01 4.477619986956856479e+01 4.855995497357126212e-01 4.477619986956856479e+01 -3.309985008207905111e+01 -8.891739794237606631e+00 4.855995497357126212e-01 -8.891739794237606631e+00 -2.387234909699072816e+01
-6.059890654703769997e+01 -1.437731531219790782e+01 -6.899414256014573255e+00 -1.437731531219790782e+01 -1.071278111876559933e+02 -2.097783584959540448e+01 -6.899414256014573255e+00 -2.097783584959540448e+01 -5.620975928976827163e+01
-1.099496363813695439e+02 1.280553453037640921e+01 -2.065266029045989882e+01 1.280553453037640921e+01 -1.026598026389547300e+02 1.519049342373355138e+01 -2.065266029045989882e+01 1.519049342373355138e+01 -5.509474183613837539e+01
-1.346763030808099870e+01 -3.264438616135920768e+01 1.933659592767024193e+01 -3.264438616135920768e+01 -1.128085460445195167e+02 -1.314759951313297925e+00 1.933659592767024193e+01 -1.314759951313297925e+00 -6.148585518700426888e+01
-2.863627686613088486e+01 1.418160222993273401e+01 1.101788843091551939e+01 1.418160222993273401e+01 -5.497431987479912152e+01 -1.493365096292527561e+01 1.101788843091551939e+01 -1.493365096292527561e+01 -6.257861434516893695e+01
-5.849331949679929465e+01 3.323883880031741000e+01 -2.256160092432974551e+01 3.323883880031741000e+01 -5.599952955981595437e+01 -1.314077822749838698e-01 -2.256160092432974551e+01 -1.314077822749838698e-01 -3.755669094977571376e+01
-5.995978777883062349e+01 2.915377950451770417e+01 -3.409309442193768636e+00 2.915377950451770417e+01 -4.941305901400168210e+01 3.413021243011087336e+01 -3.409309442193768636e+00 3.413021243011087336e+01 -6.039108778696375879e+01
-3.583067427077268974e+01 5.063424635372678395e+00 4.045808403270076781e+01 5.063424635372678395e+00 -2.773588709913207495e+01 -3.661530459202683829e+01 4.045808403270076781e+01 -3.661530459202683829e+01 -3.195840787418024220e+01
-1.140744898979514090e+02 -6.487788575511228117e+00 -5.586321822754870325e+00 -6.487788575511228117e+00 -1.223971059751038126e+02 -2.483310803515621856e+01 -5.586321822754870325e+00 -2.483310803515621856e+01 -8.205649847129579655e+01
-3.853702924551631526e+01 -1.771854284334556162e+00 -3.664679190847527934e+01 -1.771854284334556162e+00 -2.861751944332397457e+01 5.454331690433154023e+00 -3.664679190847527934e+01 5.454331690433154023e+00 -9.937667296939180517e+01
-1.305340134863795072e+02 -2.078817152801276791e+01 -8.455538854720442643e+00 -2.078817152801276791e+01 -4.809381091877996539e+01 2.945457396039282827e+01 -8.455538854720442643e+00 2.945457396039282827e+01 -1.088440895651999085e+02
-1.122244451887267189e+02 7.795532778639451266e+00 -1.782162164765615842e+01 7.795532778639451266e+00 -8.514829153391745820e+01 4.058893538008285873e+01 -1.782162164765615842e+01 4.058893538008285873e+01 -6.392376365985828812e+01
-5.318215032674788745e+01 2.304148329174467946e+01 2.263561236714849212e+00 2.304148329174467946e+01 -5.419478731492601042e+01 -2.142457900057821263e+01 2.263561236714849212e+00 -2.142457900057821263e+01 -2.601500039838739298e+01
-7.358581082491376435e+01 1.423062866383014402e+01 3.619360903852602718e+01 1.423062866383014402e+01 -9.178737166905793288e+01 5.044595885193724172e+01 3.619360903852602718e+01 5.044595885193724172e+01 -3.842660693377300873e+01
-3.086187941980072225e+01 2.619353110084040814e+00 8.055495916657532618e+00 2.619353110084040814e+00 -1.695688419924144696e+01 1.267035871374053713e+01 8.055495916657532618e+00 1.267035871374053713e+01 -1.096301233450716524e+02
-9.848870773117731403e+01 -3.542679922172765838e+00 1.976489594780297121e-01 -3.542679922172765838e+00 -8.861400750013288530e+01 -3.555639966135267827e+01 1.976489594780297121e-01 -3.555639966135267827e+01 -8.223954954571594556e+01
-5.524783206705048144e+01 1.694429461760630584e+00 8.847934153345022423e+00 1.694429461760630584e+00 -6.312325589150223237e+01 -4.182061032396351408e+01 8.847934153345022423e+00 -4.182061032396351408e+01 -2.857711643553407299e+01
-2.866777581709244060e+01 8.409984796541980501e+00 -2.060044152309938426e+01 8.409984796541980501e+00 7.303952852043838817e+00 5.261218443724088090e+00 -2.060044152309938426e+01 5.261218443724088090e+00 -2.826281969898423441e+01
-2.182635207898162122e+01 -2.717948197643235986e+01 -3.298733096116819308e+00 -2.717948197643235986e+01 -3.923052389327240519e+01 1.075881600758139989e+01 -3.298733096116819308e+00 1.075881600758139989e+01 -1.265524809981210019e+01
-2.828641785087188154e+01 -1.580030000437803395e+01 -4.129416246144452174e+01 -1.580030000437803395e+01 -5.856562832368275195e+01 1.107115656835279971e+01 -4.129416246144452174e+01 1.107115656835279971e+01 3.864677830044529827e+01
-7.832114338642894324e+01 2.710189275324461278e+01 -1.287097182370022352e+01 2.710189275324461278e+01 -7.347190514926855087e+01 -2.338136669158885184e+00 -1.287097182370022352e+01 -2.338136669158885184e+00 -1.587663691396419097e+01
-5.282337935102718518e+01 7.471068874038037322e+00 -6.147497881861569979e+00 7.471068874038037322e+00 -3.273961403039005802e+01 1.830151934816392867e+01 -6.147497881861569979e+00 1.830151934816392867e+01 -6.915433115261546959e+01
-8.556305619702064291e+01 3.851372186304268297e+01 1.815455514219911493e+01 3.851372186304268297e+01 -5.371492571294341190e+01 2.013397976546953849e+00 1.815455514219911493e+01 2.013397976546953849e+00 -4.005651764575572926e+00
-4.061665452107302343e+01 -1.657735790986658486e+01 2.986981803213746733e+00 -1.657735790986658486e+01 -5.327362574573413667e+01 -1.829272091874657491e+01 2.986981803213746733e+00 -1.829272091874657491e+01 -8.635757521667585479e+01
-1.043139275237961954e+02 3.847316921824939584e+01 1.526209411086763446e+00 3.847316921824939584e+01 -6.094238568049303240e+01 3.201130469803877787e+01 1.526209411086763446e+00 3.201130469803877787e+01 -6.451575494399709498e+01
-6.269203053648439550e+00 6.492593900802649642e+00 9.105661418241954408e+00 6.492593900802649642e+00 -2.730189504795437827e+01 5.377616462631482186e+00 9.105661418241954408e+00 5.377616462631482186e+00 -2.389435975191300798e+01
-5.995091480473380585e+01 -9.693568381930949940e+00 8.729425961186979777e+00 -9.693568381930949940e+00 -9.431002035214569901e+01 1.049075326370416050e+01 8.729425961186979777e+00 1.049075326370416050e+01 -6.583139276370762616e+01
-9.691698250761149325e+01 7.432546878268016854e+00 1.256577900917866764e+01 7.432546878268016854e+00 -1.150447106885458766e+02 1.670170678602500791e+00 1.256577900917866764e+01 1.670170678602500791e+00 -3.486418339968805213e+01
-3.335496488342573684e+01 3.437068067805116556e+01 1.122186906958373775e+01 3.437068067805116556e+01 -1.655435800463254381e+01 -2.312999396313845324e+01 1.122186906958373775e+01 -2.312999396313845324e+01 6.477383308041332555e+00
-1.983025680802541402e+01 -2.357451187436971196e+01 6.737488507297077156e+00 -2.357451187436971196e+01 -5.160898937987913371e+01 -1.551053506313517794e+00 6.737488507297077156e+00 -1.551053506313517794e+00 -3.983393546113085648e+01
-1.483994527836544535e+02 -1.118409858755464725e-01 1.845500515389115037e+01 -1.118409858755464725e-01 -4.107896478979260024e+01 2.752519483363987618e+01 1.845500515389115037e+01 2.752519483363987618e+01 -8.531634092900746680e+01
-3.246192121865330193e+01 1.956041797201717714e+01 -3.489828162351933116e+01 1.956041797201717714e+01 -9.423524908724945703e+01 -1.782259599469988842e+01 -3.489828162351933116e+01 -1.782259599469988842e+01 -5.457720564494271542e+01
-7.776365372396359987e+01 -5.024555563901252242e+00 -1.423336238432603373e+01 -5.024555563901252242e+00 -1.373479875541436286e+02 -1.068527173377431261e+01 -1.423336238432603373e+01 -1.068527173377431261e+01 -6.151574638124106542e+01
-4.398485808344638315e+01 2.730540465708632070e+01 8.608436571399174397e+00 2.730540465708632070e+01 -1.781573783881476558e+01 2.795092378738140226e+01 8.608436571399174397e+00 2.795092378738140226e+01 -1.082957900417523405e+02
-1.290026724975662660e+02 -1.153954559691707082e+01 2.621814307647188969e+01 -1.153954559691707082e+01 -5.546835567390058230e+01 -8.553643802222010706e+00 2.621814307647188969e+01 -8.553643802222010706e+00 -5.973955762158291094e+01
-8.864475286180241653e+01 -9.845092489208788322e+00 3.539984949479544785e+00 -9.845092489208788322e+00 -6.754253568512399397e+01 -3.596796816907952632e+01 3.539984949479544785e+00 -3.596796816907952632e+01 -1.225752260249571322e+02
-7.239056327983274741e+01 -2.287835591316308026e+01 -3.883194012656166194e+01 -2.287835591316308026e+01 -5.402643298443708630e+01 -1.859398183407770233e+01 -3.883194012656166194e+01 -1.859398183407770233e+01 -5.012262914732761487e+01
-6.249889293292675063e+01 -2.818776651845494285e+01 -1.920310285063337830e+01 -2.818776651845494285e+01 -3.705832174585977690e+00 1.089039982708295362e+01 -1.920310285063337830e+01 1.089039982708295362e+01 -4.093945571699109820e+01
-3.872650357272478772e+01 -9.794744354391745844e+00 -1.396653176884628955e+01 -9.794744354391745844e+00 -4.215001200203795406e+01 -9.772707966808807711e+00 -1.396653176884628955e+01 -9.772707966808807711e+00 -1.285540988089283587e+02
-6.553722001593330049e+01 1.489465715357921205e+01 1.895089458542420857e+01 1.489465715357921205e+01 -6.340991892621378412e+01 -3.642994144322110994e+00 1.895089458542420857e+01 -3.642994144322110994e+00 -1.141945264487915921e+02
-6.353843992592658907e+01 -7.470445581762461984e+00 3.528825224368694791e+01 -7.470445581762461984e+00 -1.268635118301925786e+02 6.651970034799643550e-01 3.528825224368694791e+01 6.651970034799643550e-01 -7.596229334057346705e+01
-2.555473273104456311e+01 -2.765831404636493929e+01 -2.882825906082781664e+00 -2.765831404636493929e+01 -3.284154925199649711e+01 2.154908153952497685e+01 -2.882825906082781664e+00 2.154908153952497685e+01 -3.200615830199040346e+01
-6.274778204216119093e+01 3.188339473032153748e+01 -2.332675203273112174e+01 3.188339473032153748e+01 -1.048473039747080975e+02 -3.979757251999211043e+00 -2.332675203273112174e+01 -3.979757251999211043e+00 -6.122016634712514360e+01
-5.350277429774168070e+01 1.801973057793715327e+01 2.221966405113414922e+00 1.801973057793715327e+01 -8.002107835092364496e+01 8.030611255723320241e+00 2.221966405113414922e+00 8.030611255723320241e+00 -7.986823657735009796e+00
-7.205994832149195872e+01 -1.873609168460108876e+01 -1.088076933886673103e+01 -1.873609168460108876e+01 -9.369477632606768225e+01 3.424683897350747230e+01 -1.088076933886673103e+01 3.424683897350747230e+01 -1.124689508474220645e+02
-3.114191598242419090e+01 -1.817976887170251743e+01 -4.005786655625292347e+00 -1.817976887170251743e+01 -8.098501881317532991e+01 -1.352737166453468021e+01 -4.005786655625292347e+00 -1.352737166453468021e+01 -6.096095181991178436e+01
-5.139050229296966421e+01 6.702963647258029845e+00 3.050911971915774679e+00 6.702963647258029845e+00 -1.202937258872251789e+02 5.118195854866154093e+01 3.050911971915774679e+00 5.118195854866154093e+01 -6.952751943784389255e+01
-6.963951118197213930e+01 3.723597522676551819e+01 2.561729048746519410e+01 3.723597522676551819e+01 -5.100662541614881462e+01 -4.060767035258288082e+00 2.561729048746519410e+01 -4.060767035258288082e+00 -5.602991968599742734e+01
-5.327917537250554147e+01 2.791201005659251422e+01 -2.253076780193790540e+01 2.791201005659251422e+01 -7.937245506154947350e+01 2.585133289437548498e+01 -2.253076780193790540e+01 2.585133289437548498e+01 -1.143320644693819901e+02
-6.595913944620197356e+01 -3.981664829193708233e+00 3.437740912140719446e-02 -3.981664829193708233e+00 -6.793931044165324806e+01 -1.697141528360824125e+01 3.437740912140719446e-02 -1.697141528360824125e+01 -7.892060965467391043e+01
-8.436686729617207448e+01 -1.632469640477278006e+01 2.958872159141581193e+01 -1.632469640477278006e+01 -3.767279982469209898e+01 -1.503794297053439877e+01 2.958872159141581193e+01 -1.503794297053439877e+01 -5.065345792206466058e+01
-4.011324524152887960e+01 -4.236546383237070756e+01 1.831471756996365841e+01 -4.236546383237070756e+01 -6.481987368900095703e+01 3.750282897026354334e+01 1.831471756996365841e+01 3.750282897026354334e+01 -4.259482664282128184e+01
-6.522390861546824681e+01 -1.304205419427766355e+00 -1.607959217256003936e-02 -1.304205419427766355e+00 1.027696751192859859e+00 1.377534660187654758e+01 -1.607959217256003936e-02 1.377534660187654758e+01 -5.704376889318719890e+01
-3.907904577065168894e+01 6.559024977667307077e+00 1.734253466787390452e-01 6.559024977667307077e+00 -7.665273733662715472e+01 -7.637564357943963600e+00 1.734253466787390452e-01 -7.637564357943963600e+00 -1.270066202669144246e+02
-2.208267470523923137e+01 1.799328944774025274e+01 -7.842913778571115602e-01 1.799328944774025274e+01 -6.108235699150267095e+01 1.511948663186000630e+01 -7.842913778571115602e-01 1.511948663186000630e+01 -1.413817338000880568e+02
-5.561135911318146441e+01 -2.208015494691713343e+01 1.882337720774119871e+00 -2.208015494691713343e+01 -9.695615616198853104e+01 1.277381931199290577e+01 1.882337720774119871e+00 1.277381931199290577e+01 -6.939423046987306520e+01
-8.705311788095148984e+01 -1.166644781252211516e+01 3.402033053473086710e+01 -1.166644781252211516e+01 -3.156980771081621384e+01 -5.632516423737155264e+01 3.402033053473086710e+01 -5.632516423737155264e+01 -6.229620529989616529e+01
-3.528114045439794211e+01 2.483561170500473381e+01 1.578447175188904694e+01 2.483561170500473381e+01 -3.198992743508862091e+01 1.638036124717544695e+01 1.578447175188904694e+01 1.638036124717544695e+01 -1.313915199591092744e+02
-1.144991107589170696e+02 6.436869004375946446e+00 3.249720679633402654e+01 6.436869004375946446e+00 -1.426779776104502560e+02 1.274052443626906239e+01 3.249720679633402654e+01 1.274052443626906239e+01 -1.795042832411598965e+02
-5.790321739415533386e+01 3.204764618683666555e+01 -1.183296876075920823e+00 3.204764618683666555e+01 -5.050188957073649476e+01 2.305286128717504823e+01 -1.183296876075920823e+00 2.305286128717504823e+01 -7.025953152505533694e+01
-2.669197021769804934e+01 1.859416904210071309e+01 1.456967440255644064e+00 1.859416904210071309e+01 -2.564746139999813579e+01 4.924619001711218580e+00 1.456967440255644064e+00 4.924619001711218580e+00 -5.794868541284014185e+01
-7.485574082593822709e+01 -2.359069653542364620e+01 5.615783097879476493e+00 -2.359069653542364620e+01 -9.110351426291560983e+01 -8.237218636779980452e-01 5.615783097879476493e+00 -8.237218636779980452e-01 -9.061555545708959869e+01