8.800100999999999729e+00 1.063231000000000037e+00 1.508890099999999990e+01 7.603380999999999723e+00 4.379761000000000237e+00 6.257411000000000278e+00 1.793360999999999983e+00 1.407780099999999912e+01 1.440280100000000019e+01 2.798620999999999803e+00 1.312520100000000056e+01 1.031520999999999910e+00 1.068060099999999935e+01 1.121280100000000068e+01 4.737001000000000239e+00 3.698141000000000123e+00 2.473031000000000201e+00 2.468541000000000096e+00 3.786881000000000164e+00 1.544051100000000076e+01 1.474470099999999917e+01 1.442330100000000037e+01 9.110590999999999440e+00 7.628751000000000282e+00 9.449980999999999298e+00 2.735040999999999833e+00 1.051880099999999985e+01 7.477300000000000613e-02 5.118901000000000145e+00 7.764171000000000156e+00 1.062450100000000042e+01 4.879391000000000034e+00 1.419570099999999968e+01 2.889431000000000083e+00 1.711640999999999968e+00 5.588640999999999970e+00 9.320009999999999684e-01 8.548470999999999265e+00 3.655691000000000024e+00 1.122280100000000047e+01 4.894500999999999991e+00 9.182140999999999664e+00 1.837729999999999919e-01 1.302900099999999917e+01 3.390111000000000097e+00 7.945280999999999594e+00 2.671701000000000104e+00 4.640061000000000213e+00 1.302640099999999990e+01 1.102860100000000010e+01 5.390630999999999950e+00 2.189890999999999810e+00 1.260410100000000000e+01 6.319050999999999974e+00 7.901830999999999605e+00 1.664080000000000004e-01 1.672020999999999979e+00 3.173321000000000058e+00 4.645330999999999655e+00 1.808421000000000056e+00 6.087420999999999971e+00 8.663210000000000077e-01 8.080311000000000021e+00 7.874850999999999601e+00 3.922320000000000251e-01 4.071710999999999636e+00 1.521410099999999943e+01 7.991811000000000220e+00 5.682300999999999824e+00 1.167700100000000063e+01 2.321971000000000007e+00 1.184900099999999945e+01 1.320750100000000060e+01 6.812770999999999688e+00 1.118460100000000068e+01 8.616851000000000482e+00 9.238360999999999379e+00 1.423800100000000057e+01 6.639591000000000243e+00 2.410511000000000070e+00 1.509530099999999919e+01 1.393010100000000051e+01 9.998101000000000127e+00 9.931701000000000334e+00 6.083921000000000134e+00 7.436301000000000272e+00 1.119100099999999998e+01 1.191940100000000058e+01 1.482880999999999894e+00 6.137040999999999968e+00 8.400900999999999286e+00 3.885740999999999890e+00 8.608541000000000665e+00 5.774060999999999666e+00 6.797640999999999600e+00 1.534000100000000089e+01 7.198510999999999882e+00 1.201240100000000055e+01 7.624630999999999936e+00 7.101780999999999899e+00 3.496860999999999997e+00 1.142220099999999938e+01 1.199590099999999993e+01 9.510540999999999912e+00 3.837870999999999810e+00 7.714260999999999591e+00 2.354200000000000043e-02 6.543270999999999837e+00 1.016550100000000079e+01 1.459710100000000033e+01 9.800501000000000573e+00 1.013850099999999976e+01 9.525831000000000159e+00 8.604141000000000261e+00 1.502380100000000063e+01 5.138561000000000156e+00 1.147350100000000062e+01 1.603620999999999963e+00 3.737220999999999904e+00 6.310651000000000010e+00 4.384311000000000291e+00 2.487630999999999926e+00 1.442830099999999938e+01 8.177111000000000018e+00 1.154960000000000014e-01 8.914960999999999913e+00 8.992300999999999433e+00 9.780001000000000388e+00 1.080440100000000037e+01 6.266721000000000430e+00 6.411321000000000048e+00 3.605370999999999881e+00 1.184450099999999928e+01 7.196490999999999971e+00 2.823671000000000042e+00 9.327621000000000606e+00 1.244350099999999948e+01 6.345000999999999891e+00 6.791169999999999707e-01 5.256550999999999974e+00 1.337490999999999985e+00 8.357571000000000083e+00 6.818011000000000266e+00 6.910530999999999757e+00 1.490080099999999952e+01 1.513280100000000061e+01 9.624100999999999573e+00 1.932560999999999973e+00 1.243590099999999943e+01 1.075040100000000010e+01 1.204650999999999916e+00 1.481410100000000085e+01 1.971090999999999926e+00 9.433740999999999488e+00 7.898140999999999856e+00 1.243170100000000033e+01 2.501161000000000190e+00 1.482340100000000049e+01 5.943581000000000003e+00 4.888520999999999894e+00 2.813080999999999943e+00 1.072780099999999948e+01 6.030410999999999966e+00 1.006450099999999992e+01 8.460471000000000075e+00 1.077740099999999934e+01 6.442300999999999611e+00 7.268920999999999744e+00 8.168281000000000347e+00 1.118600099999999919e+01 1.260460100000000061e+01 5.079140999999999906e+00 1.343450099999999914e+01 1.432330100000000073e+01 1.350980099999999950e+01 3.928901000000000199e+00 8.749710999999999572e+00 7.450090999999999575e+00 6.387280999999999764e+00 1.355080999999999980e+00 5.190839999999999899e-01 1.060500099999999968e+01 1.133350100000000005e+01 5.748121000000000258e+00 6.965260999999999925e+00 5.266760999999999804e+00 8.487510000000000332e-01 1.073130100000000020e+01 2.633290999999999826e+00 9.176201000000000718e+00 8.053660999999999959e+00 8.326510000000000300e-01 1.364980100000000007e+01 1.918660999999999950e+00 1.028810099999999927e+01 3.543760999999999939e+00 1.417530099999999926e+01 1.032410100000000064e+01 1.381240099999999948e+01 1.373180100000000081e+01 1.115380099999999963e+01 4.960961000000000176e+00 3.095041000000000153e+00 8.291031000000000262e+00 3.150161000000000211e+00 9.705810000000000271e-01 1.109820099999999954e+01 1.056610099999999974e+01 2.433241000000000209e+00 1.408550100000000072e+01 1.106880100000000056e+01 7.075630999999999560e+00 1.518940100000000015e+01 4.626851000000000269e+00 1.152880099999999963e+01 5.250890000000000279e-01 1.339531000000000027e+00 8.230021000000000697e+00 1.087340099999999943e+01 1.114360100000000031e+01 5.235151000000000110e+00 4.053380999999999901e+00 2.040531000000000095e+00 2.729471000000000203e+00 1.430730100000000071e+01 1.051090100000000049e+01 5.522180999999999784e+00 1.182850099999999927e+01 1.361610999999999905e+00 8.821191000000000670e+00 1.309851000000000099e+00 5.363750999999999713e+00 8.869640999999999664e+00 1.297600100000000012e+01 3.822001000000000204e+00 5.758281000000000205e+00 1.505070100000000011e+01 3.954041000000000139e+00 3.660900999999999961e+00 6.272541000000000366e+00 1.084410100000000021e+01 1.175120100000000001e+01 7.882520999999999667e+00 5.957601000000000369e+00 1.479400999999999966e+00 1.685910999999999937e+00 1.239280100000000040e+01 4.934801000000000215e+00 2.047270999999999841e+00 1.042460099999999912e+01 3.264750999999999959e+00 5.231190999999999924e+00 1.445870099999999958e+01 4.776260999999999868e+00 1.379150100000000023e+01 1.518060099999999935e+01 1.465490100000000062e+01 1.305750100000000025e+01 6.240901000000000032e+00 1.200900099999999959e+01 9.866400999999999755e+00 1.203150100000000045e+01 8.408701000000000647e+00 9.716001000000000332e+00 3.685531000000000112e+00 7.717070999999999792e+00 1.180560099999999935e+01 2.962231000000000058e+00 1.262110099999999946e+01 8.596531000000000589e+00 6.160189999999999833e-01 1.529410099999999950e+01 7.523511000000000060e+00 7.345420999999999978e+00 5.608960999999999864e+00 1.034530099999999919e+01 1.055650999999999895e+00 1.251851000000000047e+00 1.254590100000000064e+01 1.305230099999999993e+01 6.999540999999999791e+00 1.360230100000000064e+01 1.414130100000000034e+01 4.094270999999999994e+00 6.751030000000000086e-01 1.156530099999999983e+01 1.283980099999999958e+01 9.979900999999999911e+00 6.375701000000000285e+00 1.285600099999999912e+01 1.232590100000000000e+01 1.312400099999999981e+01 7.324780999999999764e+00 6.671090999999999660e+00 1.176820099999999947e+01 1.535540100000000052e+01 7.966130999999999851e+00 6.255970999999999727e+00 7.978940999999999839e+00 7.433271000000000406e+00 1.368360099999999946e+01 1.530370100000000022e+01 6.541381000000000334e+00 1.521250099999999961e+01 1.218330100000000016e+01 5.694401000000000046e+00 1.682911000000000046e+00 6.895711000000000368e+00 1.538810100000000070e+01 6.529059999999999864e-01 6.329610999999999876e+00 9.633841000000000321e+00 1.655291000000000068e+00 1.645701000000000080e+00 1.152651000000000092e+00 5.465981000000000201e+00 9.256391000000000702e+00 2.031200000000000019e-02 7.623331000000000301e+00 7.871671000000000085e+00 7.449830999999999648e+00 1.251530099999999912e+01 7.140540999999999805e+00 1.007290099999999988e+01 1.265720100000000059e+01 1.304070100000000032e+01 1.087040099999999931e+01 4.009670999999999985e+00 2.522371000000000141e+00 5.483280999999999850e+00 1.444070100000000068e+01 3.804680999999999980e+00 1.475580099999999995e+01 1.035430099999999953e+01 1.333660099999999993e+01 1.037070100000000039e+01 2.958311000000000135e+00 4.071549999999999891e-01 5.151531000000000304e+00 3.598730999999999902e+00 1.203270099999999942e+01 1.347571000000000074e+00 1.201500099999999982e+01 6.585871000000000031e+00 6.660351000000000354e+00 8.859310000000000240e-01 6.100881000000000220e+00 8.266721000000000430e+00 1.163620099999999979e+01 2.260530999999999846e+00 1.324730100000000022e+01 3.852170999999999790e+00 1.356710099999999919e+01 9.076480999999999355e+00 1.053270099999999942e+01 7.964250999999999969e+00 6.589289999999999869e-01 4.007441000000000031e+00 8.754450999999999539e+00 1.268130099999999949e+01 1.533410100000000043e+01 5.539429999999999632e-01 1.283590099999999978e+01 7.933041000000000231e+00 3.550190999999999875e+00 7.317821000000000353e+00 6.342070999999999792e+00 8.565521000000000384e+00 1.196750100000000039e+01 5.516860000000000097e-01 6.236671000000000298e+00 4.223689999999999944e-01 1.043481000000000103e+00 1.015700099999999928e+01 1.376481000000000066e+00 2.036080999999999808e+00 1.203400099999999995e+01 9.381890999999999536e+00 2.420269999999999921e-01 1.433700100000000077e+01 2.848351000000000077e+00 5.299940999999999569e+00 1.035440099999999930e+01 8.724210000000000020e-01 1.151321000000000039e+00 1.177750100000000089e+01 1.163300100000000015e+01 5.692830999999999975e+00 1.074170100000000083e+01 9.596921000000000035e+00 8.645780999999999494e+00 1.050640100000000032e+01 1.368860100000000024e+01 1.114900100000000016e+01 5.042780999999999736e+00 1.298170099999999927e+01 4.087391000000000219e+00 1.277490999999999932e+00 1.510630100000000020e+01 2.458441000000000098e+00 1.355910100000000007e+01 5.361201000000000327e+00 6.350919999999999899e-01 7.719960999999999629e+00 4.635411000000000392e+00 3.692520000000000246e-01 4.185990999999999573e+00 6.726520999999999972e+00 1.136420099999999955e+01 1.511640099999999975e+01 9.272491000000000483e+00 1.297210100000000033e+01 9.775800999999999519e+00 4.785701000000000427e+00 8.145391000000000048e+00 1.520800099999999944e+01 5.240731000000000250e+00 1.176910099999999915e+01 1.198930099999999932e+01 8.885590999999999795e+00 9.028610000000000246e-01 4.736879999999999979e-01 1.216871000000000036e+00 7.190580999999999889e+00 3.756221000000000032e+00 5.131180999999999770e+00 9.358631000000000810e+00 2.994880999999999904e+00 9.137280999999999764e+00 1.314450099999999999e+01 7.623860999999999777e+00 1.233680099999999946e+01 1.210550100000000029e+01 3.933660999999999852e+00 8.761290999999999940e+00 1.412140100000000054e+01 1.142740099999999970e+01 6.142420999999999687e+00 1.351271000000000111e+00 8.006871000000000294e+00 2.451311000000000018e+00 1.030420100000000083e+01 1.283360099999999981e+01 7.257560999999999929e+00 6.972020999999999802e+00 6.109690999999999761e+00 1.108409999999999951e-01 2.485260999999999942e+00 1.809581000000000106e+00 2.260460999999999832e+00 1.389630099999999935e+01 5.589340000000000419e-01 1.015650100000000045e+01 9.526431000000000537e+00 1.178500099999999939e+01 5.134711000000000247e+00 1.254720099999999938e+01 6.316911000000000165e+00 1.929870999999999892e+00 8.010711000000000581e+00 1.260770100000000049e+01 6.714630999999999794e+00 1.226299999999999960e-02 9.040020999999999418e+00 6.674011000000000138e+00 4.933201000000000391e+00 6.199800999999999895e+00 1.433300099999999944e+01 1.421530100000000019e+01 7.003381000000000078e+00 5.825991000000000142e+00 3.810840999999999923e+00 3.862820999999999838e+00 2.756511000000000156e+00 5.348631000000000135e+00 7.950440999999999647e+00 4.770360000000000156e-01 5.644771000000000427e+00 8.757930999999999244e+00 8.386981000000000464e+00 8.995221000000000799e+00 9.656290999999999514e+00 9.395041000000000864e+00 5.143111000000000210e+00 3.607021000000000033e+00 9.607350999999999530e+00 3.980970999999999815e+00 5.068851000000000440e+00 7.966509999999999980e-01 6.555920999999999665e+00 2.428960000000000008e-01 1.703491000000000088e+00 5.118971000000000160e+00 6.068691000000000280e+00 4.441251000000000282e+00 1.464960100000000054e+01 1.060940100000000008e+01 1.102430099999999946e+01 2.181661000000000072e+00 1.308170100000000069e+01 1.529040099999999924e+01 9.624290999999999485e+00 6.611621000000000414e+00 1.190270100000000042e+01 5.897370999999999697e+00 1.268970099999999945e+01 1.103640099999999968e+01 1.494200999999999890e+00 2.619680999999999926e+00 2.035049999999999915e-01 4.999831000000000358e+00 1.747981000000000007e+00 8.130960999999999217e+00 1.926800999999999986e+00 1.511250099999999996e+01 7.188260999999999790e+00 3.988271000000000122e+00 1.537600100000000047e+01 1.068760100000000079e+01 5.661361000000000310e+00 2.778411000000000186e+00 1.418450099999999914e+01 7.005400999999999989e+00 1.263350100000000076e+01 8.894201000000000690e+00 1.044210099999999919e+01 4.652760999999999925e+00 5.094451000000000285e+00 1.205970100000000045e+01 7.602571000000000190e+00 1.435300100000000079e+01 1.866910999999999987e+00 5.025390999999999941e+00 1.980410999999999921e+00 6.861260999999999832e+00 4.819021000000000221e+00 1.144560099999999991e+01 8.990481000000000833e+00 8.074180999999999386e+00 1.368830099999999916e+01 1.050650100000000009e+01 5.662141000000000091e+00 8.400411000000000072e+00 9.704071000000000780e+00 7.044461000000000084e+00 6.753360999999999947e+00 6.128559999999999564e-01 1.206180100000000088e+01 2.569201000000000068e+00 2.584191000000000127e+00 6.214011000000000173e+00 1.454400099999999973e+01 2.387170999999999932e+00 7.451380999999999588e+00 1.133110100000000031e+01 1.402070100000000075e+01 1.409100100000000033e+01 1.252380100000000063e+01 1.276430099999999968e+01 4.107431000000000054e+00 1.018750999999999962e+00 1.056470099999999945e+01 2.149121000000000059e+00 1.092020100000000049e+01 7.782720999999999556e+00 1.848870999999999931e+00 1.455670100000000033e+01 1.462080100000000016e+01 9.928001000000000076e+00 8.725360999999999478e+00 3.091540999999999872e+00 1.215680099999999975e+01 7.275971000000000188e+00 6.591910999999999632e+00 2.559960999999999931e+00 1.040731000000000073e+00 1.267400100000000052e+01 9.535861000000000587e+00 1.018720099999999995e+01 8.504791000000000878e+00 9.086871000000000365e+00 2.083349999999999924e-01 6.835740999999999623e+00 7.399001000000000161e+00 4.438430999999999571e+00 2.715071000000000012e+00 1.347660100000000050e+01 1.116930100000000081e+01 1.325590099999999971e+01 8.415590999999999156e+00 7.531391000000000169e+00 4.720570000000000044e-01 6.215999999999999998e-02 8.808111000000000246e+00 4.753440999999999583e+00 1.455820100000000039e+01 1.509180100000000024e+01 6.374951000000000256e+00 3.826510000000000189e-01 6.834251000000000076e+00 1.501050099999999965e+01 1.294200099999999942e+01 4.608111000000000068e+00 1.342730999999999897e+00 2.375061000000000089e+00 1.320620100000000008e+01 1.528340099999999957e+01 4.538480999999999987e+00 1.269770100000000035e+01 4.868971000000000160e+00 4.026540999999999926e+00 7.264941000000000315e+00 8.566110999999999365e+00 7.094140999999999586e+00 1.647710999999999926e+00 8.441000999999999976e+00 3.127810999999999897e+00 1.137450100000000042e+01 4.732851000000000141e+00 6.986651000000000167e+00 1.114110100000000081e+01 1.053480099999999986e+01 5.821041000000000132e+00 1.527350099999999955e+01 1.417220099999999938e+01 2.775260999999999978e+00 9.285781000000000063e+00 5.605691000000000201e+00 1.367290099999999953e+01 1.307140099999999983e+01 1.099530099999999955e+01 6.601900999999999797e+00 3.730281000000000180e+00 1.745970999999999940e+00 2.353470999999999869e+00 6.063901000000000430e+00 1.293940100000000015e+01 2.407671000000000117e+00 1.133930100000000074e+01 7.258430999999999855e+00 1.671181000000000028e+00 4.040430999999999884e+00 6.870010999999999868e+00 6.462419999999999831e-01 9.186830999999999747e+00 9.293371000000000492e+00 2.508271000000000139e+00 4.968351000000000184e+00 2.671070999999999973e+00 1.510630100000000020e+01 1.403230100000000036e+01 8.061940999999999136e+00 5.030681000000000402e+00 9.260540999999999912e+00 1.010820099999999933e+01 1.346430999999999933e+00 1.474350100000000019e+01 6.044131000000000142e+00 2.642920999999999854e+00 1.149440099999999987e+01 1.928900999999999977e+00 6.950479999999999992e-01 1.152560099999999998e+01 7.092571000000000403e+00 6.955841000000000385e+00 1.039990099999999984e+01 1.077790099999999995e+01 1.019680100000000067e+01 3.881800999999999835e+00 2.449950999999999990e+00 1.408680099999999946e+01 1.989891000000000076e+00 1.097600100000000012e+01 8.428511000000000308e+00 8.881290999999999158e+00 1.483160099999999915e+01 1.390110100000000060e+01 1.021750100000000039e+01 7.433850999999999765e+00 1.225680099999999939e+01 1.293440099999999937e+01 5.402530999999999750e+00 7.495611000000000246e+00 6.439261000000000124e+00 6.672341000000000300e+00 5.812930999999999848e+00 2.429151000000000060e+00 9.760301000000000116e+00 8.922361000000000431e+00 1.155230099999999993e+01 1.417590099999999964e+01 5.010131000000000334e+00 8.235601000000000838e+00 1.813990999999999909e+00 8.285631000000000412e+00 8.716999999999999749e-02 7.685791000000000039e+00 5.773890999999999885e+00 6.312501000000000140e+00 3.625289999999999901e-01 7.562611000000000416e+00 1.012270099999999928e+01 1.216370099999999965e+01 8.530091000000000534e+00 2.886560999999999932e+00 1.304690100000000008e+01 7.221919999999999451e-01 5.662441000000000280e+00 1.298670100000000005e+01 1.467740099999999970e+01 7.597151000000000209e+00 3.301820999999999895e+00 3.362840999999999969e+00 1.413770099999999985e+01 3.716800999999999799e+00 2.254300999999999888e+00 1.111830100000000066e+01 1.154650099999999924e+01 2.598110999999999837e+00 5.469370999999999761e+00 8.704940999999999818e+00 3.223299999999999776e-02 5.749859999999999971e-01 6.778210999999999764e+00 1.068100100000000019e+01 7.463991000000000042e+00 8.617041000000000395e+00 1.539300099999999993e+01 7.588521000000000072e+00 1.038210100000000047e+01 1.040990099999999963e+01 7.609150999999999776e+00 1.506130100000000027e+01 1.511340099999999964e+01 6.617760999999999783e+00 1.000720100000000023e+01 3.709630999999999901e+00 1.442890099999999975e+01 2.815631000000000217e+00 4.479281000000000290e+00 6.254081000000000223e+00 1.376480100000000029e+01 5.934121000000000201e+00 1.411650099999999952e+01 1.126500099999999982e+01 9.759809999999999874e-01 7.261681000000000274e+00 7.729310000000000347e-01 9.942501000000000033e+00 3.789960999999999913e+00 1.370660099999999915e+01 5.517650999999999861e+00 1.114880100000000063e+01 5.885421000000000014e+00 9.470681000000000793e+00 1.411510099999999923e+01 8.556141000000000219e+00 1.535400100000000023e+01 2.928980999999999835e+00 5.293989999999999529e-01 1.395370100000000058e+01 1.391850099999999912e+01 1.092500099999999996e+01 4.921560999999999630e+00 1.064380099999999985e+01 8.955211000000000254e+00 1.526510099999999959e+01 9.924701000000000661e+00 1.185120099999999965e+01 1.182480100000000078e+01 5.213720999999999606e+00 4.721080999999999861e+00 1.568910999999999945e+00 2.379850999999999939e+00 5.516900000000000137e-01 5.273660999999999710e+00 1.055740100000000048e+01 1.206660999999999984e+00 9.429410999999999987e+00 1.143350099999999969e+01 9.383409999999999807e-01 1.208200099999999999e+01 6.440020999999999773e+00 4.967470999999999748e+00 1.212110099999999946e+01 1.479930099999999982e+01 1.508580100000000002e+01 4.390531000000000184e+00 1.681140999999999996e+00 1.176830099999999923e+01 4.370781000000000027e+00 3.147070999999999952e+00 8.173370999999999498e+00 1.072250099999999939e+01 1.131300099999999986e+01