-7.791373229782863928e+04
-7.790997357216163073e+04
-7.791318437547548092e+04
-7.791247486973427294e+04
-7.791502294589794474e+04
-7.791330666156466759e+04
-7.791221901562201674e+04
-7.791422904938780994e+04
-7.791325200429833785e+04
-7.791454107047080470e+04
-7.791434554140975524e+04
-7.791457578434559400e+04
-7.791546672539388237e+04
-7.791603627696904005e+04
-7.791578468039704603e+04
-7.791382285122865869e+04
-7.791268327998075983e+04
-7.790943496256344952e+04
-7.791535181560690398e+04
-7.791661455860294518e+04
-7.791222920724649157e+04
-7.791590403833378514e+04
-7.791472436613957689e+04
-7.791621281002991600e+04
-7.791431045943904610e+04
-7.791214721703341638e+04
-7.791388425288459985e+04
-7.791253396546967269e+04
-7.791537101249536499e+04
-7.791547454937789007e+04
-7.791673027437309793e+04
-7.791424908781435806e+04
-7.791612953463285521e+04
-7.791271970114693977e+04
-7.791500976097058447e+04
-7.791336448179116996e+04
-7.790960395005156170e+04
-7.791288563182044891e+04
-7.790993793332674250e+04
-7.791506594579244847e+04
-7.791085721159438253e+04
-7.791541565752148745e+04
-7.791286406693189929e+04
-7.791164250961062498e+04
-7.791440880287601613e+04
-7.791366013482720882e+04
-7.791150374097950407e+04
-7.791440252442208293e+04
-7.791083643789766938e+04
-7.791243116113921860e+04
-7.791614077795403136e+04
-7.791460691717841837e+04
-7.790973104889056413e+04
-7.791609737194712216e+04
-7.791579537481912121e+04
-7.791321016279151081e+04
-7.791499479965143837e+04
-7.791688000487374666e+04
-7.791388572830615158e+04
-7.791324730988824740e+04
-7.791202833061944693e+04
-7.791208056599656993e+04
-7.791503205615792831e+04
-7.791458843607381277e+04
-7.791386264455593482e+04
-7.791448746857866354e+04
-7.791124224258221511e+04
-7.791035081768101372e+04
-7.791049126588048239e+04
-7.791340398139393074e+04
-7.791486643085403193e+04
-7.791555139704786416e+04
-7.791476179700774082e+04
-7.791568439599209523e+04
-7.791003054472539225e+04
-7.791489796200099227e+04
-7.790959758363466244e+04
-7.791216654578887392e+04
-7.791361705331277335e+04
-7.791387571028010279e+04
-7.791299611761466076e+04
-7.791590632195420039e+04
-7.791510361703833041e+04
-7.791446732884080848e+04
-7.791642010690631287e+04
-7.791455625679320656e+04
-7.791499911736085778e+04
-7.791535077875546995e+04
-7.790910814545625180e+04
-7.791679469809705915e+04
-7.791535366334163700e+04
-7.791531159748799109e+04
-7.791489233094423253e+04
-7.791178256676945603e+04
-7.790999192681680142e+04
-7.791506135144566360e+04
-7.791381006356675061e+04
-7.791078812801794265e+04
-7.791434497373719933e+04
-7.791531850635485898e+04
-7.791506445545425231e+04
-7.791535947617214697e+04
-7.791250509433634579e+04
-7.791046520695199433e+04
-7.791502472078728897e+04
-7.791496956878698256e+04
-7.791375366130130715e+04
-7.791559686889043951e+04
-7.790981574323808309e+04
-7.791386494910398324e+04
-7.790952525304564915e+04
-7.791145416874121292e+04
-7.791435817639627203e+04
-7.791323892387456726e+04
-7.790891215933678905e+04
-7.791273711723786255e+04
-7.791110321076591208e+04
-7.791166396008484298e+04
-7.790981275481704506e+04
-7.791408236156398198e+04
-7.791094837790804741e+04
-7.791379848389420658e+04
-7.791743525224248879e+04
-7.791467543725814903e+04
-7.791604877015706734e+04
-7.791556281496609154e+04
-7.791038815435943252e+04
-7.791463383578957291e+04
-7.791133287430119526e+04
-7.791239311911484401e+04
-7.791435480876087968e+04
-7.791569750498057692e+04
-7.791568478242619312e+04
-7.791455973039077071e+04
-7.791295682510054030e+04
-7.791560484641062794e+04
-7.791447654753591632e+04
-7.791043940282771655e+04
-7.791444293072717846e+04
-7.791077762325000367e+04
-7.791485781257814961e+04
-7.791329275763555779e+04
-7.791127938937899307e+04
-7.791397101832542103e+04
-7.791244586225623789e+04
-7.791485664246740635e+04
-7.791371720189372718e+04
-7.791182476622633112e+04
-7.791063937095653091e+04
-7.791502476011010003e+04
-7.791141457047133008e+04
-7.791323446652760322e+04
-7.791628278878469428e+04
-7.791222303906286834e+04
-7.791313321388202894e+04
-7.791023943857692939e+04
-7.791606699303736968e+04
-7.791563422850662027e+04
-7.791100570725377474e+04
-7.791302541140520771e+04
-7.791408135823662451e+04
-7.791445523697261524e+04
-7.791453840355983994e+04
-7.791345551342671388e+04
-7.791536833393029519e+04
-7.791596171722275903e+04
-7.791534011032588023e+04
-7.791571134420765156e+04
-7.791446914225892397e+04
-7.791029959721457271e+04
-7.791523447172318993e+04
-7.791428678016568301e+04
-7.791321537004098354e+04
-7.791499245829119172e+04
-7.791289792681565450e+04
-7.791459933751166682e+04
-7.791536854670733737e+04
-7.791419423001461837e+04
-7.791062750936581870e+04
-7.791555377193441382e+04
