6.733755731472117478e-01 5.115909502325202141e-01 3.142474534372745598e-01 3.188908661303868075e-01 1.131987909920897595e+00 8.837000566561811210e-01 -5.748061546638667807e-02 -6.434263326076500311e-01 2.824017670491859033e-01 -1.615907617203057034e-01 1.339184903285956796e-01 2.114999405494106810e+00 1.185271970460541446e+00 1.929244385825326535e+00 7.242026873028366563e-01 4.174957658402904219e-03 3.486457312548880694e-01 9.312330731692723684e-02 1.178380384977364193e+00 1.887323573756601036e-01 -8.483766958446684048e-02 1.381472354695788329e+00 1.077505200988380762e+00 2.879080420345509483e-01 -1.283193470893684518e+00 1.142323231262964311e+00 -4.374022766017257591e-01 -1.122438317769868910e+00 -1.685724900877689336e+00 -1.329466646753606041e+00 -1.016428126122699727e+00 7.330457402467402961e-01 2.311208017260150349e+00 -3.713393180735402588e-02 1.208888583390393512e+00 -3.429229693654477495e-01 4.411164925355407496e-01 1.347203146267540230e+00 -1.307477028038704692e+00 5.920608294055479393e-01 -1.132238849610182063e+00 3.477380803418634869e+00 -1.895782503856456580e-01 3.033142477166606010e+00 -1.292365110848761878e-01 -4.471590996846838140e-01 1.064713447482969810e+00 1.409226901395460585e+00 -1.046280693175406284e+00 1.185412866925426467e+00 -1.677716942309600834e-01 -1.621975421165263720e-01 -8.300627265129750798e-01 7.528206105154363614e-01 2.073345988176258814e+00 -1.956179778990100537e+00 1.775484690760990025e+00 -6.397871928923504203e-01 4.591296427724977369e-01 1.021853668462127107e+00 -7.134796435719983343e-01 1.076243817673186554e+00 3.267666699850609036e-02 1.543094998097929160e+00 5.163768020525418834e-01 -1.155006484206000161e+00 4.489285330265442298e-01 4.968451581630090041e-02 1.688506320507483727e+00 -9.358379193117775108e-01 -5.808770439501218519e-01 -1.717286223232633857e-01 -1.101265281486491915e-01 -4.275235832188487572e-01 1.007578388310023998e+00 7.384224316220650008e-01 2.231239503245016298e+00 2.426804310726256020e+00 1.462821551222661220e+00 -4.975290716604441332e-01 -2.082706861339649052e-01 1.508786194677724790e+00 6.410537184142922618e-01 1.098330624095617880e+00 -2.117646099307113339e+00 9.606146140838955905e-01 1.249067730033695534e-01 8.481987754912003741e-01 -2.016296803855998299e+00 -2.808215669156384209e-01 6.873078681092474884e-01 -1.004750174598826096e+00 -3.665982034522229371e-01 2.221119640365675774e-01 -2.250310919630636342e+00 -2.447354625772494963e+00 4.619722546625890103e-01 -1.048221362001962698e+00 1.667538458273337243e+00 8.223607292463708252e-01 -1.082497255298982441e+00 6.518826916041317587e-02 -1.046300747781721885e+00 -6.936574650012242715e-01 -1.959072784506318554e-01 -7.700038085833253998e-01 1.679470434810543811e-01 3.000683325513524985e-02 8.806661546750778058e-01 -1.509921593927602002e-01 5.294488058256987539e-01 -4.243924935302152424e-01 -1.500683619505479793e+00 1.534461747189328928e+00 -1.231179021200031309e+00 -2.569375592349092963e-01 1.048896533747926796e+00 1.744851022503318472e+00 -4.789986154246753669e-01 -7.528139256466644114e-02 -2.420286049452957222e+00 2.357989757367412453e-01 3.568542358861339636e-01 -2.461473068618795335e+00 9.393598167132310994e-01 -2.024664202675745983e+00 3.097259110440812591e-01 -1.411928102599991908e+00 -1.537787212293022954e+00 3.616503721196509535e-01 -5.509807681400606949e-01 -1.562690919571807502e-01 1.081031212155232346e+00 -1.064568951473361391e+00 -3.335919210011936697e-01 -1.355054781750500315e+00 -5.541406541864809521e-01 -8.579833664905958113e-01 5.658432883027431082e-01 -1.429771045793602147e+00 8.534926773378882503e-01 -5.965808291367169502e-01 7.325716287846085750e-01 -6.258271300138773530e-01 -1.449689383630556883e+00 8.127520017177446432e-01 1.676779518019507531e+00 5.851404475645840542e-01 -2.360051782273213383e-01 -1.170817227292946239e+00 5.096945043839933298e-01 -1.439119063440123414e+00 1.323291884891048653e+00 9.830243510900784631e-01 -1.050536383479746760e+00 -2.297106543696117331e+00 -9.845757548658391478e-01 5.049215080808407974e-01 -1.152316081635638811e+00 1.885199328149153919e+00 1.518113129276580653e-01 1.498721867631258309e-01 2.883153048089633907e-01 7.891384741119408797e-02 1.780247402650647348e-01 4.455824990958596188e-01 -4.680724545273056147e-01 6.458282573794691395e-01 -5.782061817654015057e-01 -1.352109325725456612e+00 5.106283291293634008e-01 4.150383052355968161e-01 -5.184887063637945159e-01 2.154538347397328690e-01 -4.902651904087382828e-01 -1.108862891956118979e+00 9.723337032617502818e-01 -2.731874467781031379e-01 -6.224183611608716804e-01 2.718817376407442143e+00 -7.220861550055109879e-01 -4.230848303542922295e-01 -4.881620278489565701e-01 7.086171728714369955e-01 9.745242833362417478e-01 -6.189581702403897934e-01 -4.350687431796500526e-01 -1.054759677881577318e+00 -3.183211096227491210e-01 -1.239739766993490089e-01 -3.297563489881344956e-01 2.099007656729644511e-01 3.374454907378695578e-01 -1.241745227625066644e-01 -1.594762863056792268e+00 -3.546687980183901301e-01 -2.016823365826955872e+00 -9.100605511065700259e-01 -5.940539487409304265e-01 -5.652591336162121616e-01 1.964270012866150772e+00 9.503944781729757318e-01 1.171884235193079826e+00 1.611260604965221610e+00 2.469466629007989855e+00 8.692242304409205644e-01 -8.433373332319886451e-02 -4.861884488992151976e-01 1.449307831889882658e+00 3.134457834053186454e-01 1.005036595514669173e+00 9.883640185768201025e-01 4.528607785264588403e-01 -1.063911777451013840e+00 1.126061002423576346e-01 1.060800228148021551e+00 -1.253166068811558675e-01 -1.264586395777375971e+00 1.259011215221592650e+00 -9.259967640381581155e-01 1.832152837561250858e-01 -1.040522964280081952e+00 -4.183540001464702840e-01 5.716375268659755760e-01 1.432339063843369953e+00 4.593810966824570241e-01 6.539159201521457243e-01 -1.147023208230300462e+00 6.173131783018220853e-01 -2.684195926816981825e-01 -3.233697282075748136e-01 9.159267805642692384e-01 7.940266558462404367e-01 -1.061002316873203455e+00 -1.107963519995958102e+00 6.342557210939219203e-01 -1.041706700273386854e+00 -4.527692472463509810e-01 8.814842797686261999e-01 -3.979687499368304571e-01 6.018490199496666360e-02 -8.604367133298912451e-01 9.958582706908197801e-01 -1.816817748598460902e+00 6.264025429489374908e-01 1.565779328944435722e+00 -5.350162730713604597e-01 3.932877991344604363e-01 1.495446281933016097e-01 -1.641769831819600567e+00 2.940478368912242124e-01 -9.425531271035109127e-01 2.294483504034149912e-01 -2.285073265685982069e-01 3.628649613534417062e-01 -1.464867635287544267e+00 9.238951441404008591e-02 -5.511664018036502855e-01 -4.003958715217129649e-01 -2.635900321043216366e-01 2.505437393649029634e-02 9.763965608130549256e-01 -4.773340831004666551e-01 2.181180120556813207e-01 2.872097303582224481e-01 -2.436881493289591860e-01 -1.850271917257209298e+00 9.648039699211918840e-01 -5.443853737655471869e-01 -9.789974889860073581e-01 5.102462631680143579e-01 -8.112679608503777784e-01 -1.888575701099649562e+00 1.108212402802543489e-01 -1.611552682308487139e+00 5.062631098212981851e-01 1.637566592024085610e-01 -1.899632988269083889e+00 -1.051724233238449768e+00 -3.954778649882771391e-01 1.988871872608849733e-01 -3.560973030528824523e-01 -1.335056225488282733e+00 1.505915814871195968e-01 -4.794135915092092581e-01 3.336439087114122515e+00 -5.915928885915133772e-01 8.909917058243241872e-01 -5.449998674718892211e-01 -5.597281760384585914e-01 -1.494094395779063333e+00 1.170915443441825854e+00 2.678997155795125318e-01 -4.641972875222896006e-02 1.603982839755297540e+00 -1.197897630688003895e-01 7.461439692743101482e-01 -6.717614344491298350e-01 2.253752084386151933e-01 -1.026055365595617497e+00 3.212393119520306484e-01 1.886212857099112128e-02 1.206994194424565681e+00 9.510871334218820583e-02 -1.326148380739358590e+00 1.502785753623912202e+00 3.236355802964274164e-01 2.395373600422701366e-01 -1.514317666476152846e+00 -3.954881494017724042e-01 -1.409209417892518523e+00 1.354560101461378396e-01 2.788392462144260731e-01 -2.132817666095328801e-01 1.689870033736956101e+00 5.296971744116093506e-01 1.089644922678191685e+00 -2.271430991184512915e-01 3.154553578022935012e-01 -1.003075872081797160e+00 -7.462267588029469767e-02 -4.384188908757326586e-01 1.176243283853047883e+00 -9.294507843105430656e-01 -8.289988039368898498e-01 9.634901360971716289e-02 -8.501841815164614680e-01 7.508773705855059655e-01 -8.908718924071042100e-02 4.949672242587735416e-01 3.273456824648443009e-01 4.397203834035585263e-02 1.599992487319134460e+00 -1.668702653881001030e+00 8.467311896854260445e-01 -4.691841996261437719e-01 9.125925737091043766e-02 2.163958870158991799e-01 5.640969948912470944e-01 1.564561654386596334e+00 -3.027001139647908512e-01 4.513880505139369198e-02 -7.248290080846981898e-01 -6.736275412778457428e-01 2.055967386251959794e-01 -7.696032306776848242e-02 -2.532840213407163144e-01 8.461115537723362667e-01 -4.443992773232293692e-01 4.083359529607324401e-01 -1.603271158341424973e+00 1.321958510681387616e-02 9.444377458765182975e-01 3.181401039452324553e-01 2.174114728485566084e-01 6.527414401309863390e-01 -7.032739058399718746e-02 2.971989811861734943e-01 -7.389541357997702065e-01 4.891138503179432995e-01 1.337859242386417069e+00 9.831961007954493903e-01 -5.330493789903909541e-01 4.959319022446294078e-01 4.992069737221965786e-01 1.342370500366115049e+00 -4.201954243827975555e-01 -4.748725087303749537e-01 1.267557048615483239e+00 -1.933006938502569022e-02 8.385350263503744683e-01 -5.886397192563479486e-01 2.136448064059157104e-01 -2.896867313485570472e-01 1.790166719466830536e-01 -1.171851839290569686e+00 -2.699386005549487821e-01 1.677405838801369287e+00 -1.009775139032612762e-02 -3.189433166392126595e-01 5.998435593180898723e-02 -8.057894537814501712e-01 -1.279282822662109798e+00 -3.530232918591477143e-01 3.583151368231364264e-01 4.273328073485115342e-01 2.943980211707379890e-01 -2.215175249365412546e-01 1.195062217887359113e+00 1.195237567137453327e+00 3.072766779701838202e-01 -1.156493096176740787e+00 7.126568904923771264e-01 6.128831671887365884e-01 1.357897907861266518e+00 -2.174710196026941933e+00 -3.627014391788669911e-01 1.362588628856457040e+00 -5.437055740335100529e-01 6.875557224744833773e-01 6.034009379461020561e-01 6.324477212014543159e-01 -6.363449996954850807e-01 -5.999165786539062406e-01 1.630373159004822492e+00 4.380959602919813900e-01 1.180543197135418332e+00 9.947460113713070262e-01 -1.332631160786099001e+00 -4.090121531480461203e-01 -7.767359856573259336e-01 8.823867370528356568e-01 -2.700522433240715170e-01 -3.169471119797817038e-01 -4.105532725103115954e-01 -3.886197038489596078e-01 1.459376786922422120e+00 -5.691954928815248227e-01 1.046829880856053330e-01 4.903268968897099289e-01 2.443751481504428946e-01 3.349314658589519489e-01 -9.110823075873246690e-01 5.622504284481723014e-01 -4.227521295777204591e-01 -1.339109827067441305e+00 -1.414887956803928981e+00 2.334299610881069298e-01 -2.249283506722459525e-01 7.202149059700474476e-01 -1.444128601253667155e+00 -3.083585982698857642e-01 1.093589509474300892e+00 2.746889711484117869e-01 1.344255119139122490e-01 -7.189324396071880008e-01 -4.959349875686780429e-02 -5.597132636388904015e-01 7.330010030480359207e-02 4.577792992805693739e-01 -5.595996208697676666e-01 -1.133388647038952729e-01 -3.673083422040710477e-01 -5.979975070956897731e-01 -9.795178803088678832e-01 1.172932216928247451e+00 -5.395475856573743734e-01 -5.228924922224671423e-01 8.857821361682975958e-01 -4.706399583563984912e-01 6.329933093373781849e-01 4.147709104847199235e-01 -1.045616320063611909e-01 -1.065997456507853824e+00 5.619141281268771326e-01 6.250167182304504632e-01 -2.736024228626370292e-01 7.997288489086903374e-01 5.246161599242735729e-01 -2.619681800961182749e-01 3.538367889666231836e-01 -2.650622458961688355e-01 -1.196063919761797933e+00 -2.203976551510418158e+00 -1.356764051273413596e+00 4.623435219897680803e-01 2.694048394945445790e-01 1.611500231799661398e+00 -5.232581031222238721e-01 1.109906759925888498e+00 3.829879590189523841e-01 -2.505869339015830422e-01 -2.120306162857663601e+00 -6.209070665977426406e-01 3.134509256120662779e-01 1.194627187196509288e+00 7.987790833224026610e-01 1.471905259442354147e-02 1.943301636411329525e-01 1.970236515355429027e-02 5.548605631311495090e-01 1.041909817439918395e+00 5.645309971407472815e-01 -1.358383846398917738e+00 -3.922994669975655158e-01 -1.503609020924207895e+00 5.960923194956918580e-01 6.704429726390368494e-01 -1.148842006756938261e+00 -1.236037892355869472e+00 5.883538125611795788e-01 -3.060368919233296681e-01 -8.337985397151301270e-02 -8.773571446329763157e-01 -9.855604874580108365e-01 -1.966695077568334504e+00 -4.667946161505188707e-01 -1.559725923161122685e+00 -7.982566351168430829e-01 7.444928066876453920e-01 -2.258704543704797008e+00 5.171296211203952886e-01 -4.648503477792389482e-01 3.646997007209970554e-01 8.604290000197697408e-01 -6.771751497130374942e-01 -4.092934318571416763e-01 9.534911150764001642e-01 -1.557183616145093041e-01 -2.186695651514323657e+00 -9.883629901354706870e-02 -1.062397397563836110e+00 -1.669653962129313274e-01 1.380024823496329711e+00 -6.218264931642193405e-01 -1.043427796871819524e+00 5.257510449534762431e-01 1.634196903942362278e+00 -4.090368357404348121e-01 8.255530111953013339e-01 6.989801632056985570e-01 6.422703645307821230e-01 -5.683424007820925272e-02 1.455229082959781373e-01 -9.066337845299475839e-01 2.205081097519809644e-02 2.073636008636825234e-01 -1.036226650542434735e-01 -5.498695372618972455e-01 -8.233331205423481958e-01 6.989338833449699750e-01 5.306927056379511232e-01 -1.536537656053348078e-01 3.714226218228519061e-01 4.597935016636170991e-01 2.925727434635983393e+00 -1.615954411284460601e+00 -3.042124369692695840e-01 -1.489485435871160446e+00 -9.876507945009236344e-01 -2.667530034747904177e-01 1.424461203105996887e+00 -1.831265806897284021e+00 -7.863292865657092179e-01 4.312131165602751670e-01 -7.023447090806747006e-01 2.770872963755076634e-01 -9.196224845537928072e-01 3.456282843353772338e-02 -1.877687078311537638e-01 8.220948771575184444e-02 1.477120999746477814e+00 1.518113129276580597e+00 -2.467781013636116128e-01 3.819836860411397056e-02 4.459172567551304978e-01 -8.459053512817563680e-01 -1.369186080113669712e+00 1.863124863022916911e+00 -2.555681895780147483e-01 -3.565256488749602437e-01 3.199380765345422262e+00 -7.971479753420535053e-01 2.403770309820910889e+00 -1.204865320831045722e-01 -4.339487705500157388e-01 -1.563642227820119524e-02 -1.597750485177166779e-01 -1.070165215076809978e-01 3.022409149022272645e-01 4.245472739533190376e-01 1.065192701151849164e+00 -1.454833133040213736e-02 -1.216391577255864220e+00 -2.888346676904742782e-01 -3.839094424681280815e-01 -1.748962216798050917e-01 1.029696047972941397e-01 -7.779233211953542892e-02 -7.913773909298602582e-01 3.739520733220124127e-01 -5.813511554122535729e-01 -2.385829664699095493e-02 4.141481892475816495e-02 -8.436510078435942583e-01 -4.209179044308398732e-01 7.706522408542018643e-02 9.008894253721672074e-01 -4.386610888135461517e-01 -6.234905112677531225e-01 -3.338891405512068311e-01 -8.182587909237842849e-01 7.194245487929363803e-01 2.647845667317966445e+00 2.124903809910722308e-01 -1.678884737461988630e+00 -1.155042479653233534e-01 1.177733495368511907e+00 -6.973007184819219884e-01 -1.100024981218963083e+00 1.962214672829122319e-01 2.148326561646188848e-01 -1.220341306258720948e+00 5.917615529728357249e-01 7.090059237015580162e-01 4.687049459572644183e-01 -6.817044054163521327e-01 8.001607942754914715e-01 -4.165352016198326512e-01 -1.855308194545840506e-01 -8.870239790978509120e-01 -1.018717436566745904e-01 4.006087588810650080e-02 7.309549189831529015e-01 -3.207682858139474513e-01 -8.116150598058430310e-02 -8.934969889517706543e-01 2.346054695506157028e-01 1.333734164133466016e-01 4.737530503214154032e-01 6.644178489928356246e-01 5.288430538708275286e-01 -1.380589952017894362e+00 -2.274767769143052121e+00 -6.887749396943469993e-01 1.030791852230861894e+00 -1.989977447059590454e-01 -1.143385611177025307e+00 8.898912735803307106e-01 1.536032691350730728e+00 3.463893309340268511e-02 -5.994974888039741323e-01 1.201698749915853570e+00 -1.128626963590644960e+00 -4.553100116003562792e-01 5.898111139534587379e-04 -1.206875923669370118e-02 -1.157973537499384226e-02 -1.569915720052231511e-01 1.868184280241912409e-01 -9.827852384763136051e-01 -2.723585230503846599e-01 1.254315352019654606e+00 -4.071604444982236948e-01 -3.707942441582911530e-01 -2.632311060733368291e-01 2.455465428475535894e-01 -3.126230303256974929e-01 -1.114085831349689526e+00 -6.693353413055967704e-02 1.609988937236532247e-01 -1.645944275257328782e+00 1.233601000578166129e+00 1.039399392105724296e+00 -7.556873907772414523e-01 -7.932414408758770019e-01 -1.257572939994279770e-01 -3.086738155435156394e-01 -8.387263164413863992e-01 2.282116496806093631e-01 -3.056213501960534540e+00 6.603426501453368846e-01 1.502373862863426668e+00 6.486739545936090479e-02 -5.963134343858401687e-01 -3.118460428861301592e-01 1.896975495821907332e-01 -1.623311880698973475e+00 -1.181063074237604038e+00 -2.631560298548214494e-01 3.440604254980240695e-01 -1.079626361271779134e+00 -1.179068412240197317e+00 8.878050803028160187e-01 -2.659153379956010754e-01 3.776971424963131985e-01 -2.804662404293770117e-02 -6.329953662200772380e-01 -2.241179388888190488e-02 1.225454716648566755e+00 2.240356635808568933e-02 -2.640523164909337576e-03 -5.118809706930867176e-02 1.586553329984196514e+00 1.743413775717354841e-02 1.112856843937005458e+00 5.078134851557093710e-02 -2.250846737573739681e-02 -3.682282829912224970e-02 3.526905910825758883e-01 1.119665639891545661e+00 -5.513834029284002403e-02 -2.259783892901125191e-01 -5.251823168871879721e-01 -7.506727107569501900e-01 1.095814542334001329e+00 1.927710465552507357e-01 -1.344314768737395083e+00 5.667483166903265479e-01 6.080217249295247761e-01 1.726203838174378280e+00 -2.159058347128497701e-01 3.554570983128021999e-01 -8.380357180751794866e-02 2.711968985460945225e-01 -1.328283424980975791e-01 8.481617516026174197e-01 4.283864455111014991e-01 -1.491018841923304361e+00 1.057317925738524567e+00 -4.090198664581676247e-01 7.152645035341016477e-01 -1.648017613017974448e+00 1.868503097060265628e-01 -9.694242426839396742e-01 -5.443015557955607209e-01 -2.327007961712926065e-01 1.776466338029113023e+00 -7.173794931694028598e-01 8.739391198078249046e-01 -4.567122913804356199e-01 8.167433825952570281e-01 -6.261829707208136364e-01 -1.582262158453297263e-01 8.849845799017397319e-01 -5.026625366566057629e-01 -2.630110196245382115e-01 -1.563189713626328137e-01 1.736060420068240573e-01 9.672640016292594067e-01 2.080659234612741937e+00 -4.871567264297944622e-01 -8.315565375731622799e-01 3.587661083549038010e-01 -1.476170719939515319e+00 1.696208317774088037e-01 -2.571325517147795114e+00 5.239893249217371096e-01 -1.396607411816095379e+00 -4.603051512350065377e-01 1.704548977118748032e-01 -3.453737451013694226e-01 7.120835344400160416e-01 -7.729420655189226386e-01 -7.344871007981018662e-02 5.635133544253908555e-01 -4.807258826712051403e-01 1.228786866621032481e-01 5.207301942850875998e-01 -5.571874116844531821e-01 9.752807019488185514e-01 3.859745526979773134e-01 5.407410918434999436e-01 -1.048389512162610115e+00 -8.212042469488282093e-01 3.396170446473947280e-01 -1.747683349979914480e+00 7.061154892887137047e-01 -3.423717248021015402e-01 2.394684544718518882e-01 -3.760290106273811994e-01 -1.419917549223788378e-01 -1.091757341210119192e-01 1.586905571146409455e-01 -5.888032414309226636e-01 1.825660287321689834e+00 -1.008418624892587268e+00 1.661053621343897557e+00 1.939959716246042909e+00 -6.132714037981827904e-01 8.607591296929677505e-01 2.259561235348952923e+00 3.042654016987701993e-01 -7.095335141138650048e-01 1.225567845197014671e+00 1.721955346959484490e-01 -1.503836820683128073e+00 5.557049134791107736e-01 9.393551887271581746e-01 4.369075963126034523e-02 -1.555293855165337913e+00 -4.212104959947802207e-01 -5.128147954384567608e-01 6.691929021786873211e-01 1.594837425054632885e+00 -1.366626289594698118e+00 -7.892212636405778747e-01 1.809429425943462344e-01 -1.523270762644456155e+00 7.864079623289481347e-02 5.436495239799609136e-01 4.131387740630212968e-01 2.524412136547794089e-02 9.488662143275792271e-01 -1.730964493181336439e-01