-6.427698031739672579e+00 -5.842609896259614022e-01 8.601696580690479266e+00 -5.842609896259614022e-01 -1.900481019207531430e+00 -1.401606325977613388e+01 8.601696580690479266e+00 -1.401606325977613388e+01 -1.618686813859953233e+01
-2.459191567816074908e+01 -3.174078050587396227e+00 -1.097525461893904364e+01 -3.174078050587396227e+00 6.081981537873903498e+00 1.181288022984479014e+01 -1.097525461893904364e+01 1.181288022984479014e+01 -2.375295314952339254e+01
-2.759529859373833993e+00 1.209045544026128560e+01 -3.674123873514355765e+00 1.209045544026128560e+01 -1.479832922888404312e+01 3.947394156616427008e+00 -3.674123873514355765e+00 3.947394156616427008e+00 -1.795662790612459148e+01
-1.176218157161850009e+01 3.354570288805159617e+00 -9.785977877599725261e+00 3.354570288805159617e+00 -3.253485476370057228e+01 6.857473200622032472e+00 -9.785977877599725261e+00 6.857473200622032472e+00 -3.201322056310761610e+00
7.779505051066381682e+00 7.187827322997878632e+00 1.046913200881614880e+00 7.187827322997878632e+00 -5.251833904612787762e+00 3.357542352209472725e+00 1.046913200881614880e+00 3.357542352209472725e+00 -3.613545550931130723e+00
-2.141281161556498702e+01 -2.603702850359877807e+00 9.873409610959981153e-01 -2.603702850359877807e+00 -9.073192563734018279e+00 -7.900732500704687133e+00 9.873409610959981153e-01 -7.900732500704687133e+00 -1.859984720012193904e+01
-1.423664609342873533e+00 -6.050767189856218309e+00 -3.807209374563187976e-01 -6.050767189856218309e+00 -6.584646291706403032e-02 -6.227593345476226672e-01 -3.807209374563187976e-01 -6.227593345476226672e-01 -1.344021002066560655e+01
4.836428302589961703e+00 3.891876990619060006e+00 -6.546137504684321762e+00 3.891876990619060006e+00 1.241835218915146477e+01 -9.648093692604049920e+00 -6.546137504684321762e+00 -9.648093692604049920e+00 4.916310210385845814e+00
1.902704415696738849e+01 3.613766318843594672e+00 1.446024422500114959e+01 3.613766318843594672e+00 -1.310709558019124898e+01 -3.194638427132512337e+00 1.446024422500114959e+01 -3.194638427132512337e+00 -1.839658652904322977e+01
-6.164130034095071098e-01 4.282482918566653751e+00 -7.027745151617634356e+00 4.282482918566653751e+00 6.844705463494211273e+00 1.445638615595819054e+01 -7.027745151617634356e+00 1.445638615595819054e+01 3.774662299605850091e+00
1.107683912915334901e+01 5.051164178224276213e+00 9.558006693796405884e+00 5.051164178224276213e+00 -6.426193522682948966e+00 -9.691168962975138967e+00 9.558006693796405884e+00 -9.691168962975138967e+00 -1.449288624864534469e+01
-2.573953888771636045e+01 -3.958884086206571062e-02 1.074953809239950786e+01 -3.958884086206571062e-02 -1.705012641129242112e+01 -1.056673886378516158e+01 1.074953809239950786e+01 -1.056673886378516158e+01 -3.011658480126182624e+01
-8.214274534223800828e+00 -3.805728125100404480e+00 8.312298638911004289e+00 -3.805728125100404480e+00 -4.905423268194076591e+00 1.222491351709351193e+00 8.312298638911004289e+00 1.222491351709351193e+00 -1.814580983973542061e+01
5.175421082750762736e+00 7.655714081833587592e+00 2.252228779360173405e+00 7.655714081833587592e+00 1.270506796202287703e+01 3.412944207371308103e+00 2.252228779360173405e+00 3.412944207371308103e+00 -2.129511801947938920e+01
5.517599309755333969e+00 5.271970148558442482e+00 -3.492998406125876976e+00 5.271970148558442482e+00 -1.311527972140817688e+01 8.534097500375919410e+00 -3.492998406125876976e+00 8.534097500375919410e+00 -1.917230173178200658e+01
1.901260584659030073e+01 -8.955172932207753789e+00 1.177180816189642165e+01 -8.955172932207753789e+00 1.662425894723945774e+01 1.115256148838612571e-01 1.177180816189642165e+01 1.115256148838612571e-01 -1.534414970436375647e+01
-2.456184428186370283e+01 -1.215897477850348452e+01 7.316006775357910108e+00 -1.215897477850348452e+01 -1.498990341875457588e+01 1.209559900817832734e+01 7.316006775357910108e+00 1.209559900817832734e+01 -1.372177079901795338e+01
-9.864125394657998314e+00 -6.232916743150497929e+00 2.912272467317407632e+00 -6.232916743150497929e+00 9.228893555614110511e+00 1.633909309359630746e-01 2.912272467317407632e+00 1.633909309359630746e-01 -5.138689375017577277e+00
-2.637618735742184750e+00 1.139456026991885729e+01 2.159259807899392314e+00 1.139456026991885729e+01 7.992082937808876464e-01 9.366326224796907240e+00 2.159259807899392314e+00 9.366326224796907240e+00 -3.163623453692806287e+00
-4.111176004158519248e+00 4.367450823105785140e-01 8.610462609658356414e-02 4.367450823105785140e-01 -1.560453974295695545e+01 1.089818858129065404e+01 8.610462609658356414e-02 1.089818858129065404e+01 -1.183556587433424134e+01
1.111543770433131328e+01 2.188813130915311156e+00 -8.515807441082289486e+00 2.188813130915311156e+00 9.186345492340766583e+00 5.392932962253072837e+00 -8.515807441082289486e+00 5.392932962253072837e+00 2.938651921976457260e+01
-9.866399558888941712e+00 2.268714096577859962e+01 -1.110097849757306321e+01 2.268714096577859962e+01 -8.995676958041446625e+00 1.555802032508761279e+01 -1.110097849757306321e+01 1.555802032508761279e+01 -6.228103291046352297e+00
7.423527661496057029e+00 8.972051653748399858e+00 2.795398620094775577e+00 8.972051653748399858e+00 -1.766506644768906042e+01 -3.514042031056055837e+00 2.795398620094775577e+00 -3.514042031056055837e+00 1.740200306281808995e+00
-1.607724017202735567e+01 5.791117925034172664e+00 -4.570410320750748490e+00 5.791117925034172664e+00 -1.954062219607487805e+01 -4.710928119786693458e+00 -4.570410320750748490e+00 -4.710928119786693458e+00 -2.715150998428477536e+01
-1.509450689899308173e+01 1.131120490856742578e+01 7.614298536232076309e+00 1.131120490856742578e+01 -1.782010219750462454e+01 9.054519838660418429e+00 7.614298536232076309e+00 9.054519838660418429e+00 -5.242987057759525449e+00
-4.027893002628525565e+00 -1.035433653979796587e+00 -9.429954280003991940e+00 -1.035433653979796587e+00 8.532468755351226619e+00 -6.467623022800357280e-01 -9.429954280003991940e+00 -6.467623022800357280e-01 1.161996527031014637e+01
7.716170224086134510e+00 -1.430477956709661314e+01 -2.651345423288237857e+00 -1.430477956709661314e+01 -1.293455435589184255e+01 2.681863930112391881e+00 -2.651345423288237857e+00 2.681863930112391881e+00 -7.975003315527176007e+00
-9.015486886102813457e+00 6.756217486037474629e+00 9.375194174167575056e+00 6.756217486037474629e+00 -2.059960535824749428e+01 -6.818077219392909782e+00 9.375194174167575056e+00 -6.818077219392909782e+00 -2.017089641030745284e+00
-1.766203674990175942e+00 2.604577074212522714e+00 1.018705025528862107e+00 2.604577074212522714e+00 6.069908962957772935e+00 3.865532498120721083e+00 1.018705025528862107e+00 3.865532498120721083e+00 -2.045016340615348227e+01
-1.053305633525382135e+01 4.219826737311526133e-01 -2.880052366925884400e+00 4.219826737311526133e-01 -4.472614450638875638e+00 3.803446832939382904e+00 -2.880052366925884400e+00 3.803446832939382904e+00 -1.974041700632022867e+01
-3.797592902079808042e+00 -5.879358085552966351e+00 7.241314500107696173e-01 -5.879358085552966351e+00 -1.447027980961991034e+01 7.792943209263592408e+00 7.241314500107696173e-01 7.792943209263592408e+00 -1.199371227864286915e+01
-2.145007623174190314e+01 9.399804657846736688e+00 1.875662172251075432e+01 9.399804657846736688e+00 -1.837655997031625077e+01 8.086965280289023505e-01 1.875662172251075432e+01 8.086965280289023505e-01 -2.655266524765847080e+01
-5.628632529082256042e+01 8.165061236623403218e+00 -5.488855056242182506e+00 8.165061236623403218e+00 -3.503263672053348188e+01 4.745214333822243447e+00 -5.488855056242182506e+00 4.745214333822243447e+00 -1.823230204531769516e+01
4.700006027704326961e+00 4.140941667693458506e+00 -8.647676039305010054e-01 4.140941667693458506e+00 7.152865436059215654e+00 7.592273814671320231e+00 -8.647676039305010054e-01 7.592273814671320231e+00 -7.355311808516629135e+00
-8.668761720521759306e-01 -1.415987127366433729e+00 2.579523665642029062e+00 -1.415987127366433729e+00 1.430872627013380338e+01 1.879523158799215210e+01 2.579523665642029062e+00 1.879523158799215210e+01 1.111462020267934214e+01
-2.180185163606646626e+01 -1.837566425402995307e+00 -4.270532470438974215e+00 -1.837566425402995307e+00 -3.906156404520872627e+01 1.137025653854353835e-01 -4.270532470438974215e+00 1.137025653854353835e-01 3.424052000254782513e+00
1.440375641246075311e+01 -4.935706087904582873e+00 1.872880514072370772e+01 -4.935706087904582873e+00 -9.856015361825529730e-01 5.342542085252071082e+00 1.872880514072370772e+01 5.342542085252071082e+00 -1.292908665910072821e-02
-1.912254319617372644e+01 -9.371401895127426940e+00 9.291862617383577216e+00 -9.371401895127426940e+00 6.659507832874114186e+00 5.051072468810340332e+00 9.291862617383577216e+00 5.051072468810340332e+00 -1.483563275537191695e+00
3.054919257002262523e+00 -4.427931008629665932e+00 -1.203210712753117484e+01 -4.427931008629665932e+00 1.583005405761663731e+01 1.430162230428331327e+01 -1.203210712753117484e+01 1.430162230428331327e+01 4.006367823128878847e+00
-1.919699207899364657e+00 -1.323734218949469543e+01 -1.282748256514606000e+00 -1.323734218949469543e+01 -3.512345028513239242e+01 -6.006241999495025574e+00 -1.282748256514606000e+00 -6.006241999495025574e+00 -3.801089252516192829e+01
-9.858658587913048166e+00 3.669715308137530663e+00 -1.185117299668911528e+01 3.669715308137530663e+00 5.826831719720551916e+00 5.212867856158550417e+00 -1.185117299668911528e+01 5.212867856158550417e+00 -2.038072877378074210e+01
-2.432568405861570682e+01 1.284858241410717739e+01 -1.278474852166437969e+00 1.284858241410717739e+01 -2.038391304757448097e+01 4.144840069160533602e+00 -1.278474852166437969e+00 4.144840069160533602e+00 -2.707584341481834400e+01
-1.753495644634909567e+01 -8.964621330475859295e+00 -7.656604907513773206e+00 -8.964621330475859295e+00 2.050787039194430950e+00 3.388841311746084717e+00 -7.656604907513773206e+00 3.388841311746084717e+00 1.344847745032101827e+01
1.083698249575796968e+00 5.075828246148527789e+00 -9.603702673913545595e+00 5.075828246148527789e+00 2.399276734598482008e+01 -6.476108445537174241e+00 -9.603702673913545595e+00 -6.476108445537174241e+00 -1.656616153818087867e+01
-1.489804669062775844e+01 -5.794744923399575143e+00 -7.814672592407542417e+00 -5.794744923399575143e+00 -9.994133931292587647e+00 -7.801789390451348893e+00 -7.814672592407542417e+00 -7.801789390451348893e+00 -1.160697405350645539e+01
-3.566530438910705758e+00 -1.015740452780672243e+01 6.162321233360500194e+00 -1.015740452780672243e+01 -1.693542610494865430e+00 -1.606674373592226601e+01 6.162321233360500194e+00 -1.606674373592226601e+01 -1.911140741053562353e+00
-3.650460982732630555e+01 -2.844605358766754577e+00 -5.106713720981188587e+00 -2.844605358766754577e+00 -1.875033206082839499e+01 9.765935797182924816e+00 -5.106713720981188587e+00 9.765935797182924816e+00 -9.062787807706186527e+00
-3.161621465893053262e+00 -1.680256760663242366e+00 -1.308108649405439650e+01 -1.680256760663242366e+00 -9.086953651549817268e-01 1.730973754014041965e+00 -1.308108649405439650e+01 1.730973754014041965e+00 -1.682768882316770487e+01
3.776525048405791285e+00 1.081198682898712882e+01 2.059116139898166331e+00 1.081198682898712882e+01 2.031791492447759495e+01 9.026273154302510093e+00 2.059116139898166331e+00 9.026273154302510093e+00 1.661267941305265694e+01
-6.316327077312392291e+00 -1.679461880268259577e+01 -1.379048161722216825e+01 -1.679461880268259577e+01 1.538315973276303206e+00 -9.091815034588833555e+00 -1.379048161722216825e+01 -9.091815034588833555e+00 -1.223951799208712821e+01
-3.001036105732645254e+01 7.763831603881011789e-01 -5.912439198978856503e+00 7.763831603881011789e-01 -3.779008224553181972e+00 9.903247301696145755e+00 -5.912439198978856503e+00 9.903247301696145755e+00 -9.133697189177182096e+00
-1.127753748921082178e+01 -1.366228980147991834e+01 1.059312532655888539e+01 -1.366228980147991834e+01 -1.170312672942590027e+01 -1.612471193863581176e+00 1.059312532655888539e+01 -1.612471193863581176e+00 -2.194985754671840184e+01
-1.569311502955900650e+01 -2.478343343545274635e+00 1.664952782627649785e+00 -2.478343343545274635e+00 -2.572123929324668978e+01 1.143272734334167851e+01 1.664952782627649785e+00 1.143272734334167851e+01 3.208507756471004058e+00
7.828185436797859609e+00 3.827959101060190772e+00 -5.387940151362767160e+00 3.827959101060190772e+00 -3.688756783781363957e+00 1.314151715441636625e+01 -5.387940151362767160e+00 1.314151715441636625e+01 -5.124293411912459462e+00
-1.946023535439977437e+01 1.936013211591676386e+00 -2.353674678388368413e+00 1.936013211591676386e+00 -1.416559338551779668e+01 7.670150912518825415e+00 -2.353674678388368413e+00 7.670150912518825415e+00 -2.126947794757261700e+00
-1.618502009286276078e+01 -4.149525967209460653e+00 -5.414812228252324999e+00 -4.149525967209460653e+00 -2.003396719755100719e+01 -1.762534023076842704e+00 -5.414812228252324999e+00 -1.762534023076842704e+00 -2.665360443018321845e+01
-3.247506666912210704e+01 6.782424479158747133e+00 -3.627953867210073735e+00 6.782424479158747133e+00 -7.713524905548754695e+00 -2.514577956998180763e+00 -3.627953867210073735e+00 -2.514577956998180763e+00 -1.965167641321646741e+01
-1.370016175065790165e+01 -2.769203206168317166e+00 -6.181774323348524725e+00 -2.769203206168317166e+00 1.155844514595110617e+01 5.595477308967783614e+00 -6.181774323348524725e+00 5.595477308967783614e+00 -3.428411826726170375e+01
-1.770936490438495214e+00 -1.863214508907968892e+01 7.035156157705821478e+00 -1.863214508907968892e+01 -8.313305241913678145e+00 -9.685024360272544541e+00 7.035156157705821478e+00 -9.685024360272544541e+00 -4.592059303893029742e+00
3.176599708723784232e+01 -1.195066550820519247e+01 1.247122714483334960e+01 -1.195066550820519247e+01 7.942205886037607243e+00 3.153852766980412170e+00 1.247122714483334960e+01 3.153852766980412170e+00 1.679199472098127144e+00
1.449025803241161592e+00 1.325440704831922778e+00 -1.065085972090357203e+01 1.325440704831922778e+00 -2.009984486911753621e+01 5.701387783326896219e+00 -1.065085972090357203e+01 5.701387783326896219e+00 -1.048187239000532678e+01
-1.246765317761195702e+00 -1.196537247273878357e+01 1.478346135064591671e+00 -1.196537247273878357e+01 -1.657799297048638465e+01 2.839824147026724255e+00 1.478346135064591671e+00 2.839824147026724255e+00 -3.494105627408883863e-01
-8.207903323151690245e+00 -9.374421422024312278e+00 1.945612408173726049e+00 -9.374421422024312278e+00 -3.485810824265460184e+01 -1.257166120943445087e+01 1.945612408173726049e+00 -1.257166120943445087e+01 -1.677423526972745549e+01
2.712419239783097780e+01 -7.847069959662249516e+00 5.530067489806405057e-01 -7.847069959662249516e+00 3.446463763785193635e+01 2.311185182193742804e+00 5.530067489806405057e-01 2.311185182193742804e+00 -5.525567199009786101e+00
1.083799472016040255e+01 7.148480036778897428e+00 7.777260996611508936e+00 7.148480036778897428e+00 4.804824020380554117e+00 -2.822761648141340896e+00 7.777260996611508936e+00 -2.822761648141340896e+00 -2.013519424935023849e+01
-4.404669054130164518e+00 -4.485888309403528673e+00 1.250701562218710761e+00 -4.485888309403528673e+00 -9.635872809134717443e+00 4.996471886309779009e-01 1.250701562218710761e+00 4.996471886309779009e-01 -7.014615090155064403e-02
2.706380851324186487e+00 -3.606855588309578309e+00 4.527860239301099377e+00 -3.606855588309578309e+00 1.008701159565821825e+01 1.705290444048616649e+01 4.527860239301099377e+00 1.705290444048616649e+01 1.031705566144870900e+01
3.538187083886071616e+00 -1.671032404795061055e+01 -5.556232833231769419e+00 -1.671032404795061055e+01 -1.211916621335744360e+01 -4.295537845699739954e+00 -5.556232833231769419e+00 -4.295537845699739954e+00 -5.491658090246754220e+00
9.320616771742770368e+00 -1.542289673288693308e+01 -4.078117155783441028e+00 -1.542289673288693308e+01 1.630299106659574448e+01 6.961080777730742852e+00 -4.078117155783441028e+00 6.961080777730742852e+00 -7.944667893391827107e+00
3.033146824881164250e+01 1.479081754811707006e+00 -7.907604804992861558e-01 1.479081754811707006e+00 2.328220069810901904e+01 -8.701519691325280803e+00 -7.907604804992861558e-01 -8.701519691325280803e+00 9.333016649754258154e+00
5.560057284377386111e+00 1.012805401646553349e+01 -1.687948691829527670e+00 1.012805401646553349e+01 -6.509223277548149333e+00 3.989121674457413391e+00 -1.687948691829527670e+00 3.989121674457413391e+00 -9.745304109128170467e+00
-9.191048996137096694e+00 -7.083294910326435101e+00 -1.067088721754835312e+01 -7.083294910326435101e+00 1.439414950170332164e+00 5.330022730886828874e+00 -1.067088721754835312e+01 5.330022730886828874e+00 -2.468902905739420106e+01
-8.986180526564035986e+00 3.184229312642160359e+00 4.304418385022835691e-01 3.184229312642160359e+00 -2.635755306828198741e+01 -1.218524180292248893e+01 4.304418385022835691e-01 -1.218524180292248893e+01 -1.406453431828057354e+01
-5.359231659334369624e+00 1.870415188268821804e+00 2.643853619905587760e+00 1.870415188268821804e+00 1.756351923537187609e+00 3.676038984768585927e+00 2.643853619905587760e+00 3.676038984768585927e+00 -2.923720860378395159e+01
-2.390884910052642684e-02 -2.926217252231732235e+00 1.251108747570457203e+00 -2.926217252231732235e+00 2.333054716629210290e+01 1.280205038636775683e+01 1.251108747570457203e+00 1.280205038636775683e+01 -2.650912423884349423e+01
8.885609816971197228e-01 -1.163571096425160789e+01 1.612550849109155848e+01 -1.163571096425160789e+01 -1.144893009962089758e+00 -7.782183682311577755e+00 1.612550849109155848e+01 -7.782183682311577755e+00 1.417696794538265159e+01
-1.108333360452454563e+01 -1.658294570346795993e+01 4.505330191297382214e+00 -1.658294570346795993e+01 -1.054955086899897587e+01 4.488093856990847286e+00 4.505330191297382214e+00 4.488093856990847286e+00 -1.838246228376283753e+01
-1.751512992978913275e+01 -5.176015600631709290e+00 5.639022931029737506e+00 -5.176015600631709290e+00 -9.241817237642216298e+00 7.830963776557988254e+00 5.639022931029737506e+00 7.830963776557988254e+00 -2.494291526249854840e+01
8.576977361616956230e+00 -3.947984704618799245e+00 1.413585528049750684e+00 -3.947984704618799245e+00 -6.354807415657693248e+00 9.885707638969179811e+00 1.413585528049750684e+00 9.885707638969179811e+00 -1.037256809087201326e+01
7.492856744475166586e+00 6.179074963419675548e+00 2.073324771893875429e+00 6.179074963419675548e+00 -2.908981673508852062e+00 -1.144204653558603235e+00 2.073324771893875429e+00 -1.144204653558603235e+00 1.750395265117491994e-01
-1.609718116914980612e+01 5.187539424788826459e+00 4.135854830624089651e+00 5.187539424788826459e+00 -5.468654100703490784e+00 6.463764406134945517e+00 4.135854830624089651e+00 6.463764406134945517e+00 -2.354688786328662786e+01
5.368347951371542415e+00 -4.757026359260854598e+00 7.191361755118950150e+00 -4.757026359260854598e+00 3.872048791674377544e+00 -2.984075709804422161e+00 7.191361755118950150e+00 -2.984075709804422161e+00 -2.335653482231327072e+00
1.971889547204433413e+01 -5.400311627773548118e+00 -2.811373476949105665e+00 -5.400311627773548118e+00 1.071224600732932331e+01 2.231918752987426258e-01 -2.811373476949105665e+00 2.231918752987426258e-01 2.448727100270306156e+00
-6.315033023936491574e+00 -2.051925105077850642e+00 -7.782156185181259289e+00 -2.051925105077850642e+00 3.426349656021364876e+00 9.492436923258646075e+00 -7.782156185181259289e+00 9.492436923258646075e+00 -1.327324614851253948e+01
-3.602511284980874695e+00 5.110642643246738004e+00 2.919862610099244637e+00 5.110642643246738004e+00 -2.316884882955386971e+01 4.405287592111206685e+00 2.919862610099244637e+00 4.405287592111206685e+00 -2.965113424648772877e+01
7.364405931370840541e+00 7.989504732606342863e+00 1.036325851182641600e+01 7.989504732606342863e+00 -1.118109882085371964e+01 1.725754208942927548e+01 1.036325851182641600e+01 1.725754208942927548e+01 -2.925191711549062745e+01
-2.623092535353515231e+01 -1.184496544308079491e+00 7.232134488948936735e+00 -1.184496544308079491e+00 -2.965567602713405915e+00 3.002136836448343615e+00 7.232134488948936735e+00 3.002136836448343615e+00 -2.074867313807743585e+01
-2.752897681584424561e+01 -1.105257020403317725e+01 -1.219599000902153207e+01 -1.105257020403317725e+01 5.841249170084314990e+00 1.021301969175037883e+01 -1.219599000902153207e+01 1.021301969175037883e+01 -1.866733171587769746e+01
4.861102261286938564e+00 -1.003937422263726553e+01 6.120812729833658983e-01 -1.003937422263726553e+01 2.847265629648618201e+01 1.729495865522676823e+01 6.120812729833658983e-01 1.729495865522676823e+01 1.919997997655988797e+01
1.064110073023477021e+01 5.046647824800047921e+00 6.773807167067907642e+00 5.046647824800047921e+00 -2.209100985790707128e+01 -8.373671287018478182e+00 6.773807167067907642e+00 -8.373671287018478182e+00 -2.108028701164424135e+01
-4.383521694190615214e-01 1.134619905421191000e+01 -5.158816216306756353e-01 1.134619905421191000e+01 -1.214123049066108823e-01 1.578530900067231180e+01 -5.158816216306756353e-01 1.578530900067231180e+01 -1.014241663133831750e+01
-2.945345026535259692e+01 -9.453641351011157212e+00 -4.995685082622250306e+00 -9.453641351011157212e+00 -2.627312648808409890e+01 -2.008706055220798259e+00 -4.995685082622250306e+00 -2.008706055220798259e+00 -8.247362733699102222e+00
-1.480136611224866172e+01 -1.153600657585494815e+01 -4.214232910806408050e+00 -1.153600657585494815e+01 -1.843562366010466391e+01 2.085603885178542782e+00 -4.214232910806408050e+00 2.085603885178542782e+00 -1.952866709796111522e+01
1.905828543990960711e+01 4.166933742773861304e+00 -1.011283274207068672e+01 4.166933742773861304e+00 1.110395263999748572e+01 2.063133470790596391e+00 -1.011283274207068672e+01 2.063133470790596391e+00 3.253252592179342706e+00
-5.379295359623744055e+00 1.625023326149518110e-01 1.015059679972300266e+01 1.625023326149518110e-01 -9.050068232369165244e+00 4.974073094084009661e+00 1.015059679972300266e+01 4.974073094084009661e+00 -1.144913624776744498e+01
3.149437182082128306e+00 -6.296732117282115126e+00 -1.561115598409680771e+01 -6.296732117282115126e+00 -5.739931014664258591e+00 1.660354882647686736e+01 -1.561115598409680771e+01 1.660354882647686736e+01 -3.845165470638914229e+00
1.775674247290066887e+01 7.411708476676991175e+00 -3.417675359146230551e+00 7.411708476676991175e+00 -8.876132819825047093e+00 -1.064762362173982346e+01 -3.417675359146230551e+00 -1.064762362173982346e+01 8.475686031729806613e-02
-1.082175353318432265e+01 -1.591007416993751455e+01 4.206785950260425011e+00 -1.591007416993751455e+01 1.994336001381072876e+01 5.085881849371299168e+00 4.206785950260425011e+00 5.085881849371299168e+00 -4.218119543549754269e+00
-9.119718236354120933e+00 -2.697924030172076826e+00 1.247380678283755451e+01 -2.697924030172076826e+00 -2.300503457441615396e+01 -1.217881970467882624e+01 1.247380678283755451e+01 -1.217881970467882624e+01 3.870946095938728959e+00
-3.543538882070039087e+00 -7.628795380049580466e+00 -3.568049778731255728e+00 -7.628795380049580466e+00 -1.353853047638727070e+01 -4.205137507063495761e+00 -3.568049778731255728e+00 -4.205137507063495761e+00 -1.719546960428471749e+01
-3.163862202517880640e+00 -2.935327535622866080e+00 4.034894254401290681e+00 -2.935327535622866080e+00 -2.473800439419039066e+01 -4.206066892375009303e+00 4.034894254401290681e+00 -4.206066892375009303e+00 -9.011047753849091180e+00
-1.706770201043375579e+01 3.939081462700930181e-01 8.436808513737195980e+00 3.939081462700930181e-01 -2.417615190726775154e+01 -1.014634347661368530e+01 8.436808513737195980e+00 -1.014634347661368530e+01 -1.747665890649540188e+01
9.963519880627440983e+00 -3.253247276375729857e+00 2.380984099191683523e+00 -3.253247276375729857e+00 1.117675707988345302e+01 1.869224172515378424e+00 2.380984099191683523e+00 1.869224172515378424e+00 1.809850106804950798e+01
1.529075434888986607e+01 -8.615413916500003211e+00 -9.765152516574691077e+00 -8.615413916500003211e+00 1.776059315632423363e+01 1.053741197406603014e+01 -9.765152516574691077e+00 1.053741197406603014e+01 1.622890122554282755e+01
5.780747905187659796e+00 1.059833531440529697e+01 -7.951144353562471068e+00 1.059833531440529697e+01 -4.922318172580077089e+00 2.479297585643904256e+01 -7.951144353562471068e+00 2.479297585643904256e+01 1.309085326671751481e+01
-1.803351715335889560e+00 1.281301464210575958e+01 6.915517168996085040e+00 1.281301464210575958e+01 -2.025705708307993547e+01 -9.734104726124202855e+00 6.915517168996085040e+00 -9.734104726124202855e+00 1.063864064778851315e+01
-2.361359034206009255e+01 -7.708029658654282024e+00 -3.162089141010693716e+00 -7.708029658654282024e+00 -8.884242985663080461e+00 8.433726165268824460e+00 -3.162089141010693716e+00 8.433726165268824460e+00 -2.281334057276111693e+01
-1.878662204207901354e+01 -1.263301951842317195e+00 -8.161513679230877338e-01 -1.263301951842317195e+00 -2.453246205537919611e+00 -8.630898716210152699e+00 -8.161513679230877338e-01 -8.630898716210152699e+00 -1.942354928398113145e+01
1.703556131493916581e+01 -6.207914434474993470e+00 -3.441984350409744930e+00 -6.207914434474993470e+00 -1.672147018859667655e+00 3.650855968837392940e+00 -3.441984350409744930e+00 3.650855968837392940e+00 -1.509377425379807391e+01
5.178890697679641164e-01 6.624507728071994173e+00 -1.834010855635938908e+00 6.624507728071994173e+00 1.357676879939718795e+01 1.167032277076138591e+01 -1.834010855635938908e+00 1.167032277076138591e+01 -6.407372081019440557e+00
8.881753527023693806e+00 -5.803011868815223018e+00 1.018696549033814414e+01 -5.803011868815223018e+00 3.763144454477188816e+00 6.421200117454646694e+00 1.018696549033814414e+01 6.421200117454646694e+00 -7.472136619374389888e+00
2.540908543628016147e+01 1.467247675269006457e+01 -4.532927462036465904e+00 1.467247675269006457e+01 -5.728114056461297565e+00 -3.436594794751245407e-01 -4.532927462036465904e+00 -3.436594794751245407e-01 6.478633907705373396e+00
-5.327562546918120034e+00 4.923687434076934544e+00 7.661197617913614977e+00 4.923687434076934544e+00 7.767222475485850985e+00 -1.054408515168039528e+01 7.661197617913614977e+00 -1.054408515168039528e+01 3.109428194290045244e+00
-1.416286403476074440e+01 2.298300400446195546e+00 1.807130394488005720e+01 2.298300400446195546e+00 -1.127470952496889822e+01 4.082069835332827523e+00 1.807130394488005720e+01 4.082069835332827523e+00 5.821246634940449027e+00
-1.474834747802633927e+01 -1.880507001034055747e+01 6.533439492183079622e+00 -1.880507001034055747e+01 -1.830822940578158864e+00 -7.174653580141296061e+00 6.533439492183079622e+00 -7.174653580141296061e+00 -2.118571522025725784e+01
-1.009259839609723208e+01 1.052000642010849596e+01 6.003258937422145003e+00 1.052000642010849596e+01 -2.738787064564277429e+01 -9.593349877392782332e+00 6.003258937422145003e+00 -9.593349877392782332e+00 -1.108259893039142518e+01
2.668074986174817198e+01 1.422569218966971505e+01 -1.175095325467095719e+00 1.422569218966971505e+01 2.190377157302495448e+01 3.860292254293428704e-01 -1.175095325467095719e+00 3.860292254293428704e-01 -7.629173272241330572e+00
-9.680540769223329178e+00 -3.337424365200112764e+00 -2.264908931090662492e+01 -3.337424365200112764e+00 -2.257820871962237064e+01 -6.955105983007227044e-01 -2.264908931090662492e+01 -6.955105983007227044e-01 -1.756991039394017307e+01
7.830341122774352236e+00 2.003293519053707783e+00 2.203079638182250122e+01 2.003293519053707783e+00 2.322898357129342894e+00 4.614569986185369288e+00 2.203079638182250122e+01 4.614569986185369288e+00 4.352511108348455338e+00
-2.622362339752991645e+01 2.391352022279480405e+00 5.283822281332025028e+00 2.391352022279480405e+00 -1.275662242811273828e+00 -2.197964369815005092e+00 5.283822281332025028e+00 -2.197964369815005092e+00 -3.068482269684638908e+01
-2.756331803512521361e+01 -1.015021011373441695e+01 1.574854053631164374e+00 -1.015021011373441695e+01 -2.758072320287875190e+00 8.864407629178050030e+00 1.574854053631164374e+00 8.864407629178050030e+00 -1.570314894199323774e+01
-4.847015518689121727e+00 1.058636678447956614e+00 -6.152679645512871609e+00 1.058636678447956614e+00 -2.253905040218987210e+01 5.075822967487066961e+00 -6.152679645512871609e+00 5.075822967487066961e+00 -4.189058155812038997e+00
-3.083466146449220702e+01 4.037361913832778093e+00 -1.891108108432091939e+01 4.037361913832778093e+00 -7.135051317319336839e+00 8.189088124046930872e+00 -1.891108108432091939e+01 8.189088124046930872e+00 -2.567311819188327959e+01
-2.580680921106008086e+01 1.120413079297674663e+01 8.044805652867239587e+00 1.120413079297674663e+01 -1.118955910366126183e+01 3.572596968974921516e+00 8.044805652867239587e+00 3.572596968974921516e+00 -1.929102315452368899e+01
1.679909772656153377e+00 2.530859709824918813e+00 4.762156464236911191e+00 2.530859709824918813e+00 -1.836457067011140865e+01 4.017110229833077639e+00 4.762156464236911191e+00 4.017110229833077639e+00 -1.752427417175349333e+01
3.582065373489845772e+00 1.829626941491892866e+00 -1.005226082299052592e+01 1.829626941491892866e+00 -1.323396812564484826e+01 -3.570950569179727641e+00 -1.005226082299052592e+01 -3.570950569179727641e+00 -7.705684389426730618e+00
1.846315684492030584e+01 -7.580073889623612615e+00 6.188808028674316120e+00 -7.580073889623612615e+00 1.907099349975710822e+01 1.704177190404675812e+01 6.188808028674316120e+00 1.704177190404675812e+01 2.649647288458758609e+01
7.157441080679628698e+00 6.822406073065472032e-02 -5.987026773494254606e+00 6.822406073065472032e-02 -8.802153199656386207e+00 -1.317785099547625016e+01 -5.987026773494254606e+00 -1.317785099547625016e+01 -2.252207213674303876e+00
2.186263321866593543e-02 -1.922839853648022412e+01 -6.036698196103568392e+00 -1.922839853648022412e+01 1.179690904391150852e+01 -2.430847574000426572e-02 -6.036698196103568392e+00 -2.430847574000426572e-02 1.921891660328494567e+01
-1.466495672829682562e+01 -1.126494342888439526e+01 -4.140257173669115609e+00 -1.126494342888439526e+01 -1.639833343787842779e+01 -5.225591916731326059e+00 -4.140257173669115609e+00 -5.225591916731326059e+00 -1.357178044253572757e+01