7.630050999999999917e+00 7.012151000000000245e+00 6.871960000000000290e-01 1.351979099999999967e+01 1.566631000000000107e+00 1.276139099999999971e+01 8.314140999999999337e+00 8.808840999999999255e+00 6.431751000000000218e+00 9.093330999999999165e+00 6.533980999999999817e+00 6.105831000000000230e+00 4.484310999999999936e+00 1.445909100000000080e+01 3.524611000000000161e+00 1.185649100000000011e+01 3.016331000000000095e+00 7.124971000000000387e+00 1.341299099999999989e+01 3.269181000000000115e+00 2.891551000000000204e+00 8.262681000000000608e+00 1.512531000000000070e+00 7.370900999999999925e+00 5.700950999999999880e+00 6.432571000000000261e+00 4.114611000000000018e+00 8.975801000000000585e+00 1.520979099999999917e+01 1.419209099999999957e+01 1.544109100000000012e+01 6.214271000000000100e+00 5.839641000000000304e+00 2.136711000000000027e+00 1.096589099999999917e+01 1.116329099999999919e+01 4.729521000000000086e+00 1.866111000000000075e+00 1.279499099999999956e+01 5.842310999999999588e+00 6.976640999999999870e+00 8.932131000000000043e+00 1.257679100000000005e+01 5.486631000000000036e+00 1.346819099999999914e+01 5.954210999999999920e+00 8.476120999999999128e+00 1.095249100000000020e+01 1.535479100000000052e+01 8.585311000000000803e+00 5.492740999999999651e+00 9.482020999999999589e+00 1.530099099999999979e+01 8.345810000000000173e-01 5.503620999999999874e+00 1.068469100000000083e+01 1.525719100000000061e+01 1.119469100000000061e+01 1.249249099999999935e+01 4.081011000000000166e+00 6.651900999999999620e+00 8.857070999999999472e+00 1.495299100000000081e+01 3.181791000000000036e+00 6.829000999999999877e+00 3.121520999999999990e+00 1.494839100000000087e+01 5.653759999999999897e-01 9.487071000000000254e+00 5.223690999999999640e+00 1.144199099999999980e+01 7.835310999999999915e+00 7.988940999999999626e+00 1.235799100000000017e+01 1.052919100000000086e+01 6.734500999999999848e+00 4.440671000000000035e+00 2.903941000000000106e+00 1.017629100000000086e+01 1.170119099999999968e+01 1.098329099999999947e+01 6.190250999999999948e+00 8.441641000000000616e+00 5.275750999999999635e+00 9.245231000000000421e+00 7.038280999999999565e+00 8.580871000000000137e+00 6.181810999999999723e+00 1.554417800000000049e+01 7.630021000000000164e+00 9.088770999999999489e+00 1.632930999999999910e+00 9.850590999999999653e+00 6.581560999999999773e+00 3.580541000000000196e+00 1.333189100000000060e+01 1.436379100000000086e+01 3.129580000000000140e-01 3.251071000000000044e+00 7.073819999999999553e-01 1.000179100000000076e+01 1.681700999999999890e+00 1.364039099999999927e+01 6.781500999999999557e+00 1.519589099999999959e+01 1.100849099999999936e+01 1.159939100000000067e+01 1.346529100000000057e+01 1.200069099999999978e+01 1.324749100000000013e+01 9.621090999999999838e+00 4.263981000000000243e+00 6.176060999999999801e+00 6.985011000000000081e+00 7.734920999999999935e+00 2.852720999999999840e+00 1.134979099999999974e+01 1.744021000000000043e+00 1.271770999999999985e+00 1.477969099999999969e+01 1.194749099999999942e+01 1.020469100000000040e+01 8.433230999999999256e+00 1.507009099999999968e+01 1.345899099999999926e+01 1.417209099999999999e+01 1.532469099999999962e+01 1.293001000000000067e+00 1.158399099999999926e+01 6.236621000000000414e+00 2.700051000000000201e+00 4.736411000000000371e+00 7.753311000000000064e+00 8.669311000000000433e+00 1.245179100000000005e+01 1.544400999999999913e+00 3.937400999999999929e+00 1.477579099999999990e+01 1.749530999999999947e+00 6.862010999999999861e+00 7.515201000000000242e+00 1.788780999999999954e+00 9.279241000000000739e+00 3.591641000000000084e+00 5.018551000000000428e+00 1.413609100000000041e+01 1.209980999999999973e+00 4.976130999999999638e+00 5.209470000000000489e-01 5.040860999999999592e+00 3.246351000000000209e+00 2.570660999999999863e+00 7.937151000000000067e+00 1.168059099999999972e+01 4.358170999999999573e+00 9.071090999999999127e+00 1.005169099999999993e+01 1.360481000000000051e+00 2.641271000000000146e+00 1.149609099999999984e+01 2.962101000000000095e+00 1.928231000000000028e+00 7.450381000000000142e+00 1.232719099999999912e+01 8.053860999999999493e+00 5.584520999999999624e+00 4.077270999999999646e+00 1.016909099999999988e+01 3.016621000000000219e+00 2.976119999999999877e-01 7.614760999999999669e+00 1.395649099999999976e+01 1.392569100000000049e+01 8.729670999999999736e+00 1.122729099999999924e+01 8.222210999999999714e+00 9.435651000000000010e+00 1.137890999999999986e+00 3.490550999999999959e+00 1.234549100000000088e+01 1.596230999999999955e+00 8.043331000000000230e+00 9.778881000000000157e+00 1.648660999999999932e+00 1.438679100000000055e+01 5.861800999999999817e+00 1.311889099999999964e+01 1.400399099999999919e+01 4.357821000000000389e+00 1.019739099999999965e+01 1.020329100000000011e+01 3.113351000000000202e+00 1.440909100000000009e+01 9.800091000000000108e+00 7.457751000000000019e+00 7.501431000000000182e+00 1.395229100000000066e+01 1.229039099999999962e+01 2.845670999999999840e+00 3.393120999999999832e+00 1.016249099999999927e+01 8.960691000000000628e+00 6.899841000000000335e+00 1.123929099999999970e+01 1.151669099999999979e+01 9.045400000000000662e-02 1.314769100000000002e+01 1.271749100000000077e+01 3.714040999999999926e+00 1.157079099999999983e+01 9.319530999999999565e+00 1.165939099999999939e+01 1.566931000000000074e+00 1.511059099999999944e+01 3.792050999999999839e+00 6.458541000000000309e+00 4.906531000000000198e+00 1.258909099999999981e+01 1.260069099999999942e+01 3.599181000000000186e+00 8.753800999999999277e+00 1.110829099999999947e+01 2.642749999999999821e-01 2.285841000000000012e+00 4.329391000000000211e+00 4.760349999999999859e-01 1.005379100000000037e+01 9.451100999999999530e+00 2.773820000000000174e-01 1.081839100000000009e+01 1.471059100000000086e+01 9.988891000000000631e+00 5.305911000000000044e+00 4.117091000000000278e+00 1.114949099999999937e+01 6.151430999999999649e+00 1.053829099999999919e+01 1.574109999999999954e-01 1.543279099999999993e+01 8.027410000000000379e-01 1.242349100000000028e+01 4.831031000000000297e+00 1.342569999999999875e-01 3.326550999999999814e+00 1.272089099999999995e+01 4.597221000000000224e+00 3.265810999999999797e+00 9.688109999999999777e-01 1.314249099999999970e+01 9.660581000000000529e+00 1.068759099999999940e+01 7.016850999999999949e+00 1.415789099999999934e+01 2.337301000000000073e+00 7.961011000000000060e+00 9.615831000000000017e+00 1.274659100000000045e+01 6.730291000000000246e+00 4.615080999999999989e+00 1.302119099999999996e+01 1.471889099999999928e+01 1.149270999999999932e+00 1.259219099999999969e+01 1.283999099999999949e+01 4.400881000000000043e+00 1.045529100000000078e+01 5.656610999999999834e+00 4.376451000000000313e+00 1.450769099999999945e+01 9.012840999999999880e+00 1.191379099999999980e+01 4.169101000000000390e+00 4.846841000000000399e+00 1.339219100000000040e+01 1.116419100000000064e+01 1.419049099999999974e+01 1.051549100000000081e+01 1.304049099999999939e+01 1.898299999999999987e-01 6.873401000000000316e+00 4.587470999999999854e+00 1.972949999999999982e-01 9.769380999999999204e+00 6.215030999999999750e+00 2.058031000000000166e+00 1.145229100000000066e+01 7.953740999999999950e+00 2.475261000000000156e+00 9.399340999999999724e+00 1.154050999999999938e+00 5.077351000000000170e+00 1.410769100000000087e+01 8.442721000000000586e+00 1.613510999999999918e+00 4.666811000000000043e+00 1.236269099999999987e+01 1.015689099999999989e+01 2.183481000000000005e+00 5.140461000000000169e+00 1.366740999999999984e+00 1.446259099999999975e+01 1.422819100000000070e+01 6.436351000000000155e+00 1.035269100000000009e+01 1.433549099999999932e+01 5.207120999999999889e+00 4.862720999999999627e+00 3.948780999999999874e+00 6.343670999999999616e+00 6.750701000000000285e+00 1.215239099999999972e+01 1.224271000000000109e+00 2.483360000000000012e-01 3.830020999999999898e+00 2.527791000000000121e+00 1.107049100000000053e+01 1.542169099999999915e+01 1.065929099999999963e+01 9.933790999999999372e+00 6.680479999999999752e-01 1.024889100000000042e+01 7.959700999999999915e+00 1.366179099999999913e+01 1.096969099999999919e+01 1.128039099999999983e+01 3.859461000000000030e+00 7.985650999999999833e+00 6.857421000000000433e+00 3.506410999999999945e+00 1.477799100000000010e+01 1.357899100000000026e+01 2.697111000000000036e+00 1.211129099999999958e+01 2.181089999999999973e-01 6.466389999999999638e-01 1.049499100000000062e+01 2.086450999999999834e+00 6.728389999999999649e-01 1.358239099999999944e+01 9.168590999999999269e+00 5.468301000000000300e+00 5.301270999999999844e+00 1.229139100000000084e+01 3.495241000000000042e+00 1.000929099999999927e+01 1.321589099999999917e+01 4.052411000000000207e+00 4.019060999999999773e+00 7.803631000000000206e+00 3.040251000000000037e+00 1.284149099999999954e+01 1.516809100000000043e+01 1.549819100000000027e+01 2.064510999999999985e+00 2.392161000000000204e+00 7.937750999999999557e+00 3.538831000000000060e+00 3.638081000000000120e+00 1.401270999999999933e+00 7.355711000000000332e+00 9.352930999999999884e+00 1.037909100000000073e+01 2.083760999999999974e+00 1.014119099999999918e+01 6.001191000000000386e+00 1.145029100000000000e+01 7.041330999999999563e+00 5.945551000000000030e+00 1.536989100000000086e+01 1.003579099999999968e+01 1.153079999999999938e-01 1.996680999999999928e+00 1.060399100000000061e+01 1.363279099999999922e+01 6.257601000000000191e+00 3.890261000000000191e+00 1.542849099999999929e+01 4.544000999999999735e+00 1.036801000000000084e+00 1.165739100000000050e+01 1.374989099999999986e+01 6.751350999999999658e+00 3.292610999999999954e+00 3.713020999999999905e+00 6.889610000000000456e-01 3.902690999999999910e+00 1.355939099999999975e+01 7.622029999999999639e-01 2.186901000000000206e+00 1.221899100000000082e+01 1.046639099999999978e+01 1.239769100000000002e+01 1.440409099999999931e+01 1.153059099999999937e+01 3.311320999999999959e+00 5.758170999999999928e+00 2.991651000000000060e+00 1.020979099999999917e+01 1.161689100000000074e+01 4.002721000000000195e+00 3.508230999999999877e+00 7.348010999999999626e+00 1.443540999999999963e+00 6.892851000000000283e+00 8.787121000000000848e+00 7.142331000000000429e+00 1.240439100000000039e+01 9.386241000000000057e+00 1.232409099999999924e+01 1.269629100000000044e+01 4.516751000000000182e+00 8.158830999999999278e+00 7.381971000000000060e+00 1.230289100000000069e+01 6.954631000000000007e+00 8.287931000000000381e+00 5.359120000000000550e-01 1.487999100000000041e+01 3.681160999999999905e+00 7.796460999999999864e+00 1.352599099999999943e+01 5.548060999999999687e+00 5.176650000000000418e-01 1.672941000000000011e+00 9.975291000000000352e+00 2.569071000000000105e+00 2.952291000000000221e+00 6.035661000000000165e+00 1.904760999999999926e+00 1.107699099999999959e+01 6.687381000000000242e+00 1.916061000000000014e+00 1.286699100000000051e+01 8.256971000000000060e+00 2.417400999999999911e+00 6.171261000000000330e+00 5.489410999999999596e+00 9.881591000000000236e+00 5.086770999999999709e+00 9.326560999999999879e+00 5.129451000000000427e+00 5.795170999999999850e+00 3.123810999999999893e+00 5.939281000000000255e+00 1.492061000000000082e+00 1.093399100000000068e+01 9.922090999999999994e+00 4.082211000000000034e+00 1.322069100000000041e+01 3.297140999999999877e+00 8.639030999999999239e+00 1.293869100000000039e+01 7.797461000000000197e+00 4.517470999999999570e+00 1.166199100000000044e+01 1.523149100000000011e+01 5.361251000000000211e+00 9.303050999999999959e+00 1.465799100000000088e+01 9.842290999999999457e+00 1.810780999999999974e+00 3.927370999999999945e+00 3.547470999999999819e+00 1.754021000000000052e+00 1.200699099999999930e+01 4.055420999999999943e+00 1.295549100000000031e+01 1.336049099999999967e+01 1.472329099999999968e+01 7.355341000000000129e+00 5.097591000000000427e+00 4.981470999999999982e+00 6.363040999999999947e+00 8.076171000000000433e+00 1.323409099999999938e+01 1.500919099999999951e+01 3.263310999999999851e+00 4.790371000000000379e+00 8.004281000000000645e+00 1.131419099999999922e+01 1.502049099999999981e+01 9.728360999999999592e+00 6.303461000000000425e+00 1.337339099999999981e+01 1.441069099999999992e+01 5.625541000000000125e+00 1.248799099999999918e+01 2.366000999999999799e+00 2.647911000000000126e+00 8.445301000000000613e+00 6.489240999999999815e+00 7.440531000000000006e+00 2.352631000000000139e+00 2.533320999999999934e+00 9.119310999999999723e+00 1.133939100000000089e+01 5.463950999999999780e+00 4.198831000000000202e+00 1.804801000000000100e+00 1.225639100000000070e+01 1.173849099999999979e+01 4.532460999999999629e+00 1.378359099999999948e+01 1.023089099999999974e+01 8.729981000000000435e+00 1.125539099999999948e+01 1.073679100000000020e+01 2.232991000000000170e+00 4.856940999999999953e+00 1.550269100000000044e+01 3.097401000000000071e+00 1.462729099999999960e+01 8.396261000000000863e+00 1.507339100000000087e+01 1.057479099999999939e+01 8.626941000000000415e+00 4.064150000000000262e-01 1.376999099999999920e+01 1.315489099999999922e+01 3.481891000000000069e+00 1.130179099999999970e+01 4.657550999999999775e+00 1.116929099999999941e+01 1.203869100000000003e+01 1.021969099999999919e+01 5.094549999999999912e-01 1.081709099999999957e+01 6.636910000000000309e-01 1.480309100000000022e+01 1.288500999999999896e+00 8.289471000000000700e+00 5.889580999999999733e+00 8.099071000000000353e+00 9.493130999999999986e+00 1.007759099999999997e+01 1.549412899999999915e+01 5.652751000000000303e+00 1.492029100000000064e+01 4.957581000000000238e+00 5.599361000000000033e+00 5.055271000000000292e+00 5.355400999999999634e+00 6.138260999999999967e+00 5.645991000000000426e+00 1.472259099999999954e+01 8.607181000000000637e+00 7.438400999999999819e+00 4.820579999999999865e-01 7.478830999999999563e+00 1.068739099999999986e+01 1.218479100000000059e+01 1.312561000000000089e+00 9.070620999999999157e+00 1.165599100000000021e+01 6.168781000000000070e+00 1.447919100000000014e+01 1.360549100000000067e+01 7.605660999999999561e+00 1.449739100000000036e+01 7.247559999999999558e-01 1.251949100000000037e+01 9.075181000000000608e+00 7.835760999999999754e+00 5.697790999999999606e+00 8.760350999999999999e+00 4.789109999999999756e-01 1.544979099999999939e+01 1.270861000000000018e+00 4.790121000000000073e+00 2.247771000000000186e+00 4.247270999999999574e+00 3.549430999999999781e+00 1.006429100000000076e+01 1.151679099999999956e+01 9.646850999999999843e+00 9.526410999999999518e+00 1.040849099999999972e+01 1.522409099999999960e+01 1.387369100000000088e+01 5.521950999999999610e+00 1.443591000000000069e+00 4.537491000000000163e+00 2.039680000000000104e-01 1.424659100000000045e+01 5.672960999999999920e+00 4.974751000000000367e+00 1.190999099999999977e+01 1.142809100000000022e+01 5.443440999999999974e+00 3.019261000000000195e+00 1.294429099999999977e+01 1.398209100000000049e+01 1.250529099999999971e+01 1.377339100000000016e+01 9.096781000000000006e+00 2.873050999999999799e+00 1.052459099999999914e+01 1.462269099999999966e+01 1.027209099999999964e+01 1.426129099999999994e+01 1.082619099999999968e+01 1.129999100000000034e+01 3.919141000000000208e+00 6.805120999999999754e+00 4.186321000000000403e+00 1.523751000000000078e+00 8.627710999999999686e+00 7.078650999999999804e+00 9.924590999999999497e+00 1.061639100000000013e+01 1.107219100000000012e+01 1.243019100000000066e+01 1.060329100000000047e+01 8.796310999999999325e+00 3.210320999999999980e+00 8.093980999999999426e+00 1.256219100000000033e+01 1.489041000000000059e+00 1.774130999999999903e+00 2.539290999999999965e+00 1.519519099999999945e+01 7.654530000000000500e-01 9.508781000000000816e+00 4.555221000000000409e+00 8.639670999999999879e+00 2.161220999999999837e+00 8.474940999999999391e+00 1.309869100000000053e+01 1.294059099999999951e+01 9.144650999999999641e+00 6.282401000000000124e+00 7.177831000000000294e+00 5.003521000000000107e+00 1.237279099999999943e+01 5.108361000000000374e+00 1.207249099999999942e+01 6.498361000000000054e+00 2.993361000000000161e+00 1.075589100000000009e+01 1.449149099999999990e+01 3.548791000000000029e+00 2.226990999999999943e+00 4.623220000000000107e-01 8.682470999999999606e+00 9.904991000000000767e+00 1.396759100000000053e+01 1.515429100000000062e+01 9.380190999999999946e+00 1.189009099999999997e+01 5.034631000000000078e+00 1.450919099999999951e+01 1.391169099999999936e+01 7.731050999999999895e+00 4.983250000000000179e-01 9.880591000000000790e+00 1.417439099999999996e+01 9.160000000000000087e-02 1.131850999999999940e+00 4.047339999999999827e-01 1.213899999999999979e-01 1.310059099999999965e+01 1.001239099999999915e+01 7.611761000000000443e+00 2.137360999999999844e+00 2.697999999999999877e-03 6.679230999999999696e+00 6.246241000000000376e+00 5.697690999999999839e+00 3.179670999999999914e+00 4.726721000000000394e+00 1.495709100000000014e+01 2.278300999999999910e+00 4.828101000000000198e+00 1.132729100000000066e+01 9.111791000000000196e+00 7.502081000000000444e+00 8.929721000000000686e+00 1.381219100000000033e+01 1.107239099999999965e+01 1.082509100000000046e+01 7.322040999999999578e+00 1.140699099999999966e+01 1.530199099999999923e+01 1.185319100000000070e+01 2.537730999999999959e+00 8.077671000000000490e+00 1.072109099999999948e+01 1.025899099999999997e+01 2.362620999999999860e+00 1.794521000000000033e+00 9.339380999999999489e+00 5.040891000000000233e+00 3.030281000000000002e+00 7.071280999999999928e+00 9.103680999999999912e+00 5.975741000000000192e+00 1.020121000000000056e+00 2.984440999999999899e+00 3.424961000000000144e+00 4.321551000000000364e+00 1.089799099999999932e+01 6.898301000000000016e+00 1.185799100000000017e+01 3.856161000000000172e+00 9.059409999999999963e-01 4.255181000000000324e+00 1.440989100000000001e+01 1.555816399999999966e+01 3.110831000000000124e+00 6.767451000000000327e+00 6.712041000000000146e+00 1.146119099999999946e+01 5.629070999999999714e+00 9.393280999999999992e+00 1.185369099999999953e+01 7.358551000000000286e+00 1.046599100000000071e+01 7.067480999999999902e+00 9.195650999999999797e+00 1.146259099999999975e+01 1.491669100000000014e+01 1.434949100000000044e+01 1.537879099999999966e+01 1.296079100000000039e+01 2.152451000000000114e+00 7.153501000000000332e+00 6.273341000000000278e+00 1.205309100000000022e+01 7.150930999999999926e+00 2.123781000000000141e+00 4.170780999999999850e+00 1.127189100000000010e+01 1.003629100000000030e+01 1.372769100000000009e+01 3.857841000000000076e+00 8.832070999999999117e+00 6.990731000000000250e+00 1.485840999999999967e+00 1.331529100000000021e+01 6.720970999999999584e+00 1.378989100000000079e+01 4.275591000000000363e+00 6.285241000000000078e+00 3.924831000000000181e+00 1.246909100000000059e+01 1.005751000000000062e+00 1.353479100000000024e+01 1.519169100000000050e+01 9.200530999999999793e+00 1.700091000000000019e+00 1.022039099999999934e+01 7.815551000000000137e+00 8.580571000000000836e+00 1.410000000000000120e-04 2.686061000000000032e+00 5.655980999999999703e+00 6.406901000000000401e+00 1.320029100000000000e+01 1.294629100000000044e+01 9.467010000000000147e-01 6.697880999999999752e+00 6.467370999999999981e+00 6.470190999999999804e+00 1.110579099999999997e+01 6.296110000000000317e-01 8.536951000000000178e+00 2.020661000000000040e+00 5.857250999999999763e+00 1.490399099999999954e+01 1.417791000000000023e+00 3.801801000000000208e+00 1.214559099999999958e+01 1.075039100000000047e+01 1.404279099999999936e+01 6.054521000000000264e+00 1.333319099999999935e+01 1.115580999999999934e+00 8.234121000000000024e+00 1.481029099999999943e+01 1.309349100000000021e+01 4.518170999999999715e+00 8.937410000000000077e-01 1.380779099999999993e+01 1.143059099999999972e+01 1.448509100000000061e+01 9.341150999999999982e+00 2.436071000000000097e+00 1.352849100000000071e+01 5.239270999999999567e+00 8.672860999999999265e+00 9.599520999999999304e+00 7.483850999999999587e+00 5.538781000000000176e+00 1.547729099999999924e+01 6.412351000000000134e+00