-7.783511146851921512e+04
-7.783157827245086082e+04
-7.783819541124679381e+04
-7.786789496953267371e+04
-7.786133864675744553e+04
-7.781883987628271279e+04
-7.781509776666383550e+04
-7.785935167580860434e+04
-7.781953648557637644e+04
-7.780671200033898640e+04
-7.784107817250676453e+04
-7.780517958326112421e+04
-7.785311309241960407e+04
-7.786260886054017465e+04
-7.784433518405069481e+04
-7.786160072904911067e+04
-7.786073147038248135e+04
-7.783213636868608592e+04
-7.783484380609486834e+04
-7.781247604002720618e+04
-7.781571740207078983e+04
-7.782383799974145950e+04
-7.785368779484134575e+04
-7.782703533389634686e+04
-7.781796515802298381e+04
-7.786022358391195303e+04
-7.785621010018199740e+04
-7.784049448474547535e+04
-7.784006817157231853e+04
-7.785519877788885788e+04
-7.783128518137351784e+04
-7.786468320027990558e+04
-7.783388229388967738e+04
-7.782926182950695511e+04
-7.785485074565284594e+04
-7.782759216812276281e+04
-7.783514613540506980e+04
-7.784698519591074728e+04
-7.784982350727378798e+04
-7.781632373066725268e+04
-7.781432926046184730e+04
-7.783567094779139734e+04
-7.786171297811369004e+04
-7.786773937830619980e+04
-7.780467842081913841e+04
-7.781451617092064407e+04
-7.783270678704889724e+04
-7.781666479157521098e+04
-7.783350831981765805e+04
-7.782853267657411925e+04
-7.784281812956031354e+04
-7.785705073292113957e+04
-7.785459121244665585e+04
-7.785767395962275623e+04
-7.785085635369506781e+04
-7.781243765197198081e+04
-7.782123535543988692e+04
-7.785016029587188677e+04
-7.785999263705151679e+04
-7.786033380627450242e+04
-7.784025916028601932e+04
-7.782632996791478945e+04
-7.781445606320572551e+04
-7.786009733179364412e+04
-7.781443598389822000e+04
-7.782091870994489000e+04
-7.781807255697024812e+04
-7.784690430226837634e+04
-7.782995778150897240e+04
-7.783323789866761945e+04
-7.781602575203728338e+04
-7.781668346281905542e+04
-7.784677521902989247e+04
-7.785643700555438409e+04
-7.782158935501296946e+04
-7.784269677312532440e+04
-7.785258356981619727e+04
-7.785918946721378597e+04
-7.786031103917131259e+04
-7.786792439019311860e+04
-7.782776339477932197e+04
-7.783956746118847514e+04
-7.782611236330318206e+04
-7.784509171278218855e+04
-7.785063051432935754e+04
-7.783351417302322807e+04
-7.784468620346245007e+04
-7.781131414105070871e+04
-7.785091465419257293e+04
-7.782061726512692985e+04
-7.786241412459911953e+04
-7.782052452608747990e+04
-7.781802207727309724e+04
-7.784657151999490452e+04
-7.783494309280143352e+04
-7.785595553952595219e+04
-7.783500171161086473e+04
-7.785671174928644905e+04
-7.786417703353594698e+04
-7.785846707832436368e+04
-7.784038583235237456e+04
-7.783023909283100511e+04
-7.785061283379576344e+04
-7.786272029268190090e+04
-7.783814328848182049e+04
-7.786563492549353396e+04
-7.781971531127230264e+04
-7.784603682572393154e+04
-7.782767854259598244e+04
-7.784330822147135041e+04
-7.785232502447048319e+04
-7.783545252270241326e+04
-7.781557603941923298e+04
-7.785203465994815633e+04
-7.785314577053027460e+04
-7.784070275268738624e+04
-7.784669007539574523e+04
-7.783576552494170028e+04
-7.784521275992911251e+04
-7.784264370585099095e+04
-7.784540028157863708e+04
-7.786229958802794863e+04
-7.786369995954980550e+04
-7.786710924312415591e+04
-7.786191013053088682e+04
-7.783276280752032471e+04
-7.784484659158602881e+04
-7.787197322952482500e+04
-7.786473467100922426e+04
-7.785164658696074912e+04
-7.780075131916409009e+04
-7.783599505853137816e+04
-7.782419114752770110e+04
-7.784756668605732557e+04
-7.781792873504321324e+04
-7.784840133308716759e+04
-7.786057995540552656e+04
-7.786372528039732424e+04
-7.779445472321128182e+04
-7.784577841390692629e+04
-7.783672346147312783e+04
-7.783312787560401193e+04
-7.781363147087502875e+04
-7.785912481172780099e+04
-7.786802534194775217e+04
-7.782371593886388291e+04
-7.780644538628622831e+04
-7.786670441019827558e+04
-7.782312723136819841e+04
-7.784272594737297914e+04
-7.784080873253363825e+04
-7.784670665352008655e+04
-7.784260922163473151e+04
-7.783042116301489295e+04
-7.785552221329732856e+04
-7.783577188496605959e+04
-7.785009763840526284e+04
-7.787060073678537447e+04
-7.785142248422728153e+04
-7.786928325168688025e+04
-7.784402392739008064e+04
-7.784258544764971884e+04
-7.781664679359470028e+04
-7.781828449540500878e+04
-7.783660149686627847e+04
-7.782719460420744144e+04
-7.783668022250196373e+04
-7.786365179644760792e+04
-7.785518777386219881e+04
-7.786148015256963845e+04
-7.782317958796155290e+04
-7.784804526701619034e+04
-7.782019555861767731e+04
-7.785867584026564145e+04
-7.784097276591700211e+04
-7.786806201171208522e+04
-7.785442497087534866e+04
-7.780670808534408570e+04
-7.785466055705891631e+04
