-4.518241096461361739e-01 -2.594824373543127005e-01 -1.193995209987225303e+00 -3.211596591695097924e+00 -3.837714770610890724e+00 2.782835279312093846e+00 2.159901669035109717e-01 -8.189041378706122254e-01 -9.206226437662073936e-01 -2.523612523398536922e+00 8.012103186726833304e-01 1.418615542475287983e+00 -3.372416022403259106e+00 3.381905450735339880e+00 -1.228059758586917294e+00 1.946222409843984646e+00 -9.662412167071551816e-02 -3.220450957493846467e+00 -3.224616144959429609e-01 2.646762718576915141e+00 4.614109313740174301e+00 -3.636342354828875911e-01 6.156800134387739876e-01 -2.408858523397693130e+00 -5.749967762680015859e+00 -1.622387311925749032e+00 -1.269944060987734380e+00 2.609479148553204730e+00 1.562066655672645021e+00 -1.061526307740787295e-01 -3.149515243851604307e+00 1.373212942217740817e+00 -2.771876208291539800e+00 -5.090029804205716601e+00 5.967871344714319903e+00 -2.470687388889877933e+00 2.365034580611668769e-01 2.026781249193746248e+00 9.100780346095120876e-01 -2.654061566834504671e+00 -7.823759065960619097e+00 4.051045902405200905e-01 6.554853216515231784e-01 3.677044463898412108e+00 -1.092916908831710332e+00 3.980749365061690526e+00 9.927559773599730075e-01 -3.467340644743881484e+00 1.022288184932301780e+00 3.453326074473883622e+00 -3.970890726285128736e+00 1.611906980353399188e-01 1.009503630516337624e+00 -1.840232787023805994e+00 -2.246618300965161463e+00 -7.063144926898471399e-01 7.073809863693061306e-01 -7.582580827745179164e+00 4.087394105021517454e+00 -2.801780711632396947e+00 4.687620244521630841e-01 -6.252455464307200561e-01 -4.342759177432999884e+00 8.586677942087055371e-01 -4.097084079416756230e-01 6.940097061634370457e-01 -2.358058662937830618e+00 -1.799629408323824453e+00 -3.636711051052681221e+00 -5.214552454365039003e-01 3.222312436336489949e-02 -2.856468594614144152e+00 -2.285035213356049866e+00 1.559020412395347499e+00 -3.697688367107457186e+00 -1.169431916795133919e+00 -2.081812117365560988e-01 -1.980572865138845229e+00 -1.700741687242800726e+00 -3.643354267949947989e+00 3.551091766042574260e+00 -3.134316937588301766e+00 3.664173006188412796e+00 8.073449713226089619e-01 -7.514844080920639158e+00 -3.581435413839678894e+00 6.931854104217914925e-01 -8.280469814679031204e-01 -1.136534649127154406e+00 -4.074327757675781925e+00 1.812545603232527780e+00 3.825077283307909859e+00 -2.225237519529179586e+00 3.244579219995088248e+00 -4.779643633815239490e+00 4.155671297775232809e+00 1.959745385148909280e+00 -1.233645223556196102e+00 -3.891151554690939651e+00 -1.893475709909468563e+00 -2.192122736515775272e-02 -1.391211694275804378e+00 -7.323047482544065012e-01 -2.465015020626564635e+00 9.675329390421603115e-01 3.691454469867302191e+00 -1.646226068187098962e-02 7.693577931496203171e+00 -7.346247576727359174e+00 9.562370534796360566e-01 1.999518811679822594e+00 1.083838342818765010e+00 -3.143024750494742836e-01 -1.137264328264643298e+00 1.872279533695726972e+00 2.782841449960191671e+00 5.451500199089200915e-01 -1.955345713055634427e+00 -2.037419960733923396e+00 1.150507567522496499e+00 4.084969040319333944e-01 9.255375649755945844e-01 -6.698758900789078652e+00 -2.628883265715396877e+00 2.279484715392654959e+00 1.988929465324422940e+00 5.332252424611601427e+00 7.847352024739432386e-01 3.999366724591494116e+00 -2.774062674600632494e+00 -2.621940772385417784e+00 1.127369694040848858e+00 -1.620001327994847529e+00 -2.149230047371747609e+00 4.706582131903526367e+00 2.365214557847835908e-01 -3.270698030728338424e+00 -1.074834853024335235e+00 4.244003611065391368e+00 -1.198642736445735713e+00 -2.687103844732767310e+00 -2.136390985564258660e+00 -6.731009793068881031e+00 5.938970085909926588e+00 -2.399560899377298995e+00 2.760811207811983525e+00 -1.562827188050619931e+00 -2.589439454637005866e+00 -7.676756230562671313e+00 7.316309134821967319e+00 6.231120448511273668e-01 -7.480121329857249979e-01 1.210522262474116539e+00 1.504449257506771165e+00 -6.852453289827720173e-02 6.163312739233616888e+00 -9.942343617999174210e-01 -1.167378119420129368e+00 -2.732928620164295705e-02 -5.828670779614556485e-01 -1.761401214920574054e-01 -3.929628630900775299e+00 -2.430664565331703830e+00 1.170851165857480503e+00 2.074309637720765098e-01 1.001181997336643814e+00 2.028671010173501710e+00 -4.624386528145993380e-02 -1.793308093568959594e+00 -6.213767043400038048e+00 -6.080705758936272298e-01 -1.836255290104512161e+00 1.741199027271149724e+00 2.747024437300905841e+00 1.166628899896999361e+00 -2.606168081628404409e-01 3.336489480740248759e+00 2.081402797708449715e+00 -5.299733109139572740e-01 -2.836252523006501658e+00 -8.482584250894730227e-01 -3.727081220876925727e+00 -7.796397898077140898e-01 -2.314973141040766791e+00 2.770416850016561572e+00 2.570135096285718568e+00 -2.321272858527291483e+00 6.223294009841376928e-01 -5.636748197172665176e-01 3.391162451322428772e+00 -9.563527531314577335e-01 1.529540141111169760e+00 -2.365348255223274909e-01 4.259864747778463467e+00 4.254341503510832290e+00 -1.187958773486179398e+00 -2.148745651496120512e+00 1.528275158251252153e+00 3.747450016024972963e-01 8.728500004186763306e-01 1.604692464286470610e+00 8.985903447353006390e-01 -2.017694969870679866e+00 -4.498536160204433254e-01 -3.026117194307990310e+00 9.993683410167538694e-01 2.704529754959144938e+00 -7.461542536878054133e-01 1.996461255547680169e+00 -2.803532147250640705e+00 -4.767417008831393854e-01 2.856422314753415570e+00 3.775757864170690148e-01 1.293803386076074924e+00 -2.090183629950706778e-01 -3.566480333955539095e+00 9.338043308092911943e+00 -4.341760560882610420e-01 -7.160209221466783625e+00 -1.024861345188817330e+00 1.789066801443512045e+00 2.310786356306844258e+00 -1.578722777548901668e+00 1.398771766636173641e+00 7.281596153951398476e-01 3.834250465925011508e-01 1.648475269418513633e+00 5.691497272414709485e-01 -8.843777995055190910e-01 1.863172685545669838e+00 6.226970687665934756e-01 -8.404371286263237484e-02 9.444752839857760707e-01 4.584210466826739605e+00 -5.724355973532081060e-02 2.809489393767773180e+00 2.785436721705721652e+00 -3.506238353465674251e+00 -3.524699904131024297e+00 -9.615582090220861078e-01 1.613486152045597199e+00 -8.981491433963539883e-01 3.738299973338235827e+00 6.630181403161301557e-01 -2.319063252287833610e+00 -2.593660177935463107e+00 1.606645988629896271e+00 -1.038077844971582731e-01 -7.953733997934455680e-01 1.876350104557152898e-01 -1.808834986843435910e+00 4.598094425045347600e-01 -1.141482994680401264e+00 3.497841644067464451e+00 -3.566316297560289783e+00 -1.381666730110848729e+00 3.027618718678299015e+00 9.682626181796495368e-01 -4.080735461504008121e+00 1.571995228460974170e+00 1.604374161688792100e+00 -1.599328114207340334e+00 1.940412744660509503e+00 -2.635272971820004639e-01 -6.172201043596898806e-01 -1.493296839512505813e-03 -3.576747778168537284e+00 -8.829138132444681597e-01 -1.781232649463493800e+00 8.866151736614140688e-01 3.300426670598427314e+00 2.730222276753016430e+00 -4.650566531139539883e+00 4.598672923304456539e+00 1.378055872532661263e+00 -1.942483511317781408e+00 -1.657796033369272615e-01 -4.170168207038159380e+00 -2.011474442368068605e+00 4.736527772898365130e-01 -1.628493168217888254e+00 -5.111055259155437014e-01 1.853019912543143743e-01 -9.571307690123744827e-01 1.172832458117343268e+00 2.876487205482678000e+00 5.185385857692466072e-01 9.906049922774384786e-02 7.595620435615826338e-01 6.798177297606459168e-01 1.935258710837357343e+00 -3.209766480313615666e+00 -5.086053849948447558e-01 9.853609698362028047e-01 1.889844283504290567e+00 5.695605895606067337e-01 4.884191381863381975e-01 -6.495383595478860794e-01 2.237178752038532503e-01 -2.081135402957572822e+00 3.724058631750667203e+00 -6.075496703500919971e-01 -4.193126103283639772e+00 -2.495095387438190926e+00 -2.287801720586275955e+00 -6.790669675754914536e+00 -8.592113254619303253e-02 3.025543324034954296e+00 2.066594270716616943e+00 3.623901299823653055e+00 7.412346016482104005e+00 1.462110898250138291e+00 2.723030386395777658e+00 -7.320527801237723953e-01 1.179806833129157351e+00 -4.012223784122600279e+00 -7.818231707927588703e-01 -7.443886255789382567e+00 7.662181159757182058e-01 -1.206785420830611910e+00 -2.426319400629954603e-01 3.035454927541016423e-01 6.450533268226009698e-01 3.649627760182059699e+00 -1.694870829799028700e+00 -1.985552063932578104e+00 -4.443560313644818294e+00 -1.423552575173690160e+00 4.506150225735652270e+00 1.122333416752217428e+00 -2.731901721476793110e+00 6.188640164348406358e+00 -2.415028143053502774e+00 6.053020117807018652e-01 8.056243889448511108e-01 -4.272083659452188820e-01 -1.348567373717687312e+00 -5.690401982377464307e-01 1.631810920011460553e+00 1.211164524096895567e+00 -5.618267106121673793e-01 -3.231023334566979210e-01 1.797620348147524139e+00 -2.806739855819813667e-01 4.224788727111512543e+00 -2.657343837401518361e+00 -2.334217335573106900e-01 1.948707124144440472e+00 7.682559725098050962e-02 7.883923399128593967e-01 -5.005817941182437281e+00 4.264288074022777320e-01 2.946936980587268606e-01 -5.005717153930182572e-01 1.248754055422090170e+00 -5.417998722128374300e-01 -5.783481066716360530e-01 1.117882322591466693e+00 1.872796839694538695e+00 1.762306243308157327e+00 -1.345530900633210347e+00 1.286985334149388871e+00 -3.567174531866469378e-01 -2.564042609731123523e+00 1.263764156918429471e+00 2.142197051203010849e-01 1.491937754269106353e+00 1.295345533879689981e+00 2.361945657018365896e+00 -6.563749234188634984e-01 -5.248650427308590438e-02 1.683969865714722181e+00 -6.537441704467747416e-02 -6.583491708554822353e+00 5.873988533460767769e+00 2.025974951175717464e+00 -2.560591160562112556e+00 -1.894772060230546673e+00 -1.003859030169461430e+00 -5.509415845246437904e+00 6.086505139706252621e+00 1.604436896611113328e+00 2.079921327944456610e+00 -2.123895423167511343e+00 2.040532024257590837e+00 3.600972714156634336e+00 2.838618966551762046e+00 -2.391593050021842082e+00 -8.819151966940776965e-01 -3.352562476371324429e+00 -1.851035020738557857e-01 1.778528362934913787e+00 1.321410865662764778e+00 -8.737241755657738640e-01 -2.272983937622297668e-01 9.843818936714535672e-01 7.305133576897337555e+00 -7.308841622183054554e+00 2.224948527509962748e+00 -1.204749621179223906e+00 3.511969342885910894e+00 3.997242993204721401e-02 1.143066794358671867e+00 1.945174942329492174e+00 2.096171729708324882e+00 1.162910055977111473e-01 -2.059073793348204173e+00 3.557759151311554180e-01 9.726502060870670263e+00 5.094779146357830690e+00 3.211662926162142107e-01 3.334568866520008168e+00 -1.994601833587736683e+00 -1.383250015568444624e+00 2.047944001063628505e+00 -2.898232569377066969e+00 2.321166414847615211e+00 -1.844410830006257385e+00 -1.585262636090541077e+00 3.524982725502143893e-02 -1.089962711055195432e-01 5.243379665392265965e-01 -2.031836038426669155e+00 2.380367612691759671e+00 4.335753949180700673e+00 -4.910707685178223869e+00 3.478412330092210070e+00 4.162074373617385525e+00 1.610041387745358321e+00 -1.010283703279953649e+00 4.558386304540128497e-01 9.669071324809735968e-01 -1.298211799920820364e-01 1.251953536460466809e+00 2.946936980587268606e-01 -1.177594655786325717e+00 -2.920631507749079425e+00 1.082494169974933751e+00 -2.303256108745611375e+00 7.458395506348501902e-01 -6.779773339656681719e-01 1.792377868368312477e+00 -2.887230818040506519e-01 9.674907729468300299e-02 -1.384262516077053640e+00 -1.830397802398283869e+00 -1.075648864352485301e+00 -2.155653692040890412e+00 -3.478175788581818306e+00 5.646322471916081831e+00 2.508835878088540028e+00 1.994464536667574617e+00 -4.246192648477858933e-01 4.004220967761258909e-01 1.335851724872141322e+00 -1.580199619326821736e+00 3.320528585216272477e-01 4.832735375822521995e+00 2.346679473625994383e+00 -6.056861346247500721e-01 -2.207013024594894901e+00 4.036220920351776820e-01 1.068191121906393981e+00 -6.149076539852795786e-01 -7.896012727192279479e-02 -5.073270838194507526e+00 2.861774837757026457e+00 6.876486421504131030e+00 2.360213761785763253e+00 5.348311536284456880e-01 2.637797795333092665e+00 1.695438015203292403e+00 2.670011149503636716e+00 2.279297539067041356e+00 2.561898823738035236e-01 -2.136469147106822675e+00 3.199121598125341137e+00 -4.287116900878892523e+00 2.326526136940672895e+00 3.296836381847229713e+00 7.386461176155869612e-01 -3.871873935814739376e+00 -9.436185923416203769e-01 9.753568066086834021e-01 6.947980064578491710e-01 1.292598052814429854e+00 -1.930436863570102357e+00 -2.368982766952501429e+00 -8.072868643863607696e-01 3.070584941378817767e+00 1.084553109556685990e-01 2.544527420903182957e+00 1.170930355841394155e+00 1.948963720261147614e+00 -8.815932945516760100e-01 9.132590037035975827e-01 -3.343325530390551581e+00 2.572325162139535326e+00 1.219545806874861915e+00 -2.092343356784712449e-01 -1.901892473913993520e+00 -1.772107289369145189e+00 -2.310047935417884446e+00 -1.542901651124218176e+00 4.132419781524462543e+00 1.392994497355208638e+00 9.738593960037729147e-01 -1.206351418581111501e+00 2.562850131986347813e-01 3.636841148883396269e-01 3.569849507816588385e+00 2.380964108674485047e+00 1.934440585743809171e+00 9.204781477565988634e-01 -2.493001995071229437e+00 -1.064818348500621736e+00 1.211016942763238680e+00 -7.518615889570027244e-01 -6.784797275649119275e-01 1.711490442007377100e+00 3.216707430981569776e-02 2.118891027560715123e+00 1.088937355029717668e+00 3.349420588048520830e+00 -1.163419648665801942e+00 2.048826917962196958e+00 3.297476586587309910e+00 -5.958924419194114641e+00 2.815766485544607622e+00 -1.159848386079570970e+00 2.291601811372776520e+00 2.612269824155145415e+00 4.168468193487392170e+00 1.342911974736640923e+00 -3.332713044104787858e+00 9.562755686081757744e+00 -9.598705367675132161e-01 1.399116294488265355e+00 5.158265859305452006e-01 2.828851344834633963e+00 -1.895910544804472631e+00 -3.026361449128502912e+00 -3.784124234549088861e-01 1.239720740828523793e+00 2.331572698642799590e+00 -1.602177925186878404e-01 2.872308134058876861e-01 -1.022020790181425109e+00 1.284974217090389947e+00 -2.696196294703931517e+00 5.438464704983951847e-01 -1.279320874992042389e+00 1.859524289858224266e+00 -4.242030546336325258e+00 -1.766777906295898593e+00 2.215481724887571335e+00 -9.011203104551361240e-03 -2.075170443130318620e+00 1.200597289230510789e+00 -1.425057699088722041e+00 -1.083721614725593918e+00 6.399594568183960552e-01 1.696428404222886321e+00 -1.370356960590105588e-01 -1.011681355073960065e+00 -1.457417091930899300e+00 -1.201623673697338246e+00 -5.337634258193673098e+00 -2.083333182121510863e+00 -1.992075467412624812e-01 1.223507362953238253e+00 1.562648753476477026e+00 3.162025204427245106e-01 -2.963608014863093887e-01 -3.193772160445778940e+00 1.072731690464553633e+00 1.716652703361325694e+00 2.057540901516734966e+00 -1.658137990117990013e+00 6.043014926138150500e+00 8.485050967471568839e+00 -5.309350578419669731e+00 1.000164354621287388e-01 7.172334544977700954e-01 1.251375038201358425e+00 -4.740610685055984819e-01 -1.254220221194823681e+00 -2.313561091067866948e-01 -2.356069143147171641e+00 3.066169328444625641e-01 -6.645176078037398071e-01 -5.259778162710467830e-01 2.156811202779782277e-01 1.910650680446561500e+00 -4.031424269897584622e+00 -1.505158882037944679e+00 3.813150963198124632e+00 -6.176834171876516288e-01 6.351314389030437990e-01 1.165437964814247662e+00 -3.874861557935114664e+00 -8.756207756805030940e+00 -2.679891385548538008e+00 6.311045767989728050e-01 -3.538573577936137138e-01 9.584919111384729296e-02 -5.917322423943742749e-01 -4.022419237441131057e-01 -9.386152251761739063e-01 -3.758048618352518577e+00 -3.215139057923542265e-01 -9.464074681711988291e+00 2.380944568288844571e-02 1.314108417860451627e+00 -1.140670011793600558e-01 3.195076738297653485e+00 -3.466170278488120537e+00 5.843300357811570533e-01 2.880365972032417621e-01 3.205733447561447402e+00 -4.022414095234383979e-01 1.243740403843148074e-01 -3.178483865564392552e+00 1.211762562741645510e+00 1.724389667633813739e+00 -1.372978971810723481e+00 9.475750062132489715e-01 4.657991363462446799e+00 -2.997562006017711944e+00 -3.063757633479986531e-01 1.926164718204169013e+00 -1.758285037631508452e-01 3.780385850243559998e-01 2.247928535244458015e+00 -4.253765062134422514e+00 6.389469563097872618e-01 4.423069133976176293e-02 1.390735011710298785e+00 -1.914844664269930608e+00 4.815548578209909891e+00 1.143187121996566580e+00 -2.820982740069406525e+00 -1.879029708493344275e+00 2.592561288353493865e+00 -1.011119826097118590e+00 7.001186477796246255e-01 -2.075837901566161214e+00 1.017413372935546345e+00 -2.571826368085014636e+00 -1.737776374459925277e+00 -3.319946487412440028e+00 1.056369188593586417e+00 9.398118166863479450e-01 -3.286366334688374913e+00 -8.233259214529015102e-01 1.156533719610046973e-01 3.043451573254259745e+00 1.526440933104371789e+00 1.084050201736767471e+00 1.626577696204394852e-01 -2.312260626981390566e+00 -1.197958308727625765e+00 1.337354791904474371e+00 -4.470201572583627048e+00 -2.789319087800184338e+00 -4.659070198438099553e+00 3.557350860095792378e+00 -2.186279132767765976e+00 -1.114419560567610823e+00 1.914598866787393661e+00 2.014693978012761733e+00 -6.690334937695108231e-01 -1.210596824471957156e+00 2.256260967058322020e+00 2.787445267661346815e+00 8.746065782436677205e-01 7.678075720814114824e-01 6.419649174499727495e-01 -2.833696332032253462e+00 -4.668038721226646093e-01 1.913890270697570006e+00 2.624471252325927928e+00 -1.412372903483662068e+00 1.311884927662775313e-01 7.823456189983183373e-01 -1.625748772476676596e+00 -1.011542515491774097e+00 1.460900937002420408e+00 2.716875679139536093e+00 -1.103885235824410893e+00 -7.256044528622411782e-01 2.225239576411878861e+00 -5.727060774281336641e+00 2.412435442411346553e+00 1.036780980429829579e+00 1.452362302697976393e+00 -1.121005184749303885e+00 -1.896399568666172486e-01 5.463820926456528504e-01 -3.353695818738502282e-02 -3.705515319998029522e-01 1.397922788302139674e+00 -7.952530721555509663e-01 -1.372305856947458325e-01 1.192094650373300313e+00 2.281557538932625917e+00 -5.349450535079058433e+00 -8.708656228347647632e-01 -2.653019755747434871e+00 5.054033328530939118e-01 1.755166289239069366e+00 -2.989041369436884477e-01 -3.303216317759017251e+00 -3.304064781872376955e+00 -1.456504864453869175e+00 5.020481457943986037e+00 -1.420104725549402369e+00 -4.011558382569456960e+00 8.234323651325775595e-01 -3.379114260912724710e+00 6.262379923330133602e-01 -1.301924987413285884e+00 -7.266349510944668522e-01 -3.346625284460507666e-01 1.284170490175734702e+00 2.497360015289848079e+00 2.696965568833377791e+00 1.175796426086678642e-01 2.563730477781541950e+00 -1.236057946962185072e+00 -2.919603580620227845e+00 2.901397597630234748e-01 3.940120789548644975e+00 -9.873216932690751513e-01 3.819667167588725931e+00 -3.428610571962062981e+00 -3.928918492148927299e-01 -1.933600349161245679e+00 3.070874447618709424e-01 -1.538588882324978702e+00 8.428369965154439702e-01 -1.915259126133789902e+00 2.543018697443427456e+00 -1.001873624144200559e+00 2.056162790108369623e-02 9.585705869017118186e-01 -9.327911618138051697e-02 -2.013654738029064806e+00 -2.814351350247659589e+00 2.683785064497845152e+00 6.793020692679932360e+00 3.594040505240151173e+00 -1.269294086054833626e+00 3.183190527400500680e-01 2.369081497322055863e-01 9.736444517617218741e-01 -3.147081951618624363e-02 4.975007895233321542e-01 -8.661075389311805317e-01 -1.366815008582336288e+00 -3.750314225183404293e-01 3.187499696655016757e-01 -8.040015084952983893e-01 -8.052632003428973562e+00 -3.344492297101589795e+00 1.357054585954654780e+00 -3.098769376562592104e+00 2.011602483316084378e+00 -1.618537855954471416e+00 -1.691553592226130664e+00 1.602001033274759845e+00 3.634753412943856898e-01 7.419612983057858324e-01 2.308182342809843024e-01 7.690607278658094792e-01 -1.309124591080646161e+00 7.533482009277433500e-01 -5.876462449127053400e-01 4.497132337762329013e-01 8.660314342713154590e-01 2.118028679489137311e-01 3.537889664438702009e-01 -1.196208415771406353e+00 -9.516903142733792453e-01 9.892027124973590269e-01 4.584434667040936162e+00 1.132944874596631957e+00 -1.803286031542065793e+00 -4.958244301236038876e-01 3.418795641942856012e+00 2.429731254807008689e+00 -7.454230318882920647e-01 -1.951183096693425822e+00 3.904672987333839829e-01 -1.999074525016827142e+00