-2.564505706834906107e+01 1.099992083204629623e+01 6.569944731261203152e+00 1.099992083204629623e+01 -3.417508311945164223e+01 -2.211817928673174549e+01 6.569944731261203152e+00 -2.211817928673174549e+01 -1.825404171377711293e+01
-9.757594898463788979e+01 -2.275674275347564901e+01 1.078515858561738927e+00 -2.275674275347564901e+01 -1.025466446884370555e+02 -3.517103316053587037e+01 1.078515858561738927e+00 -3.517103316053587037e+01 -7.337246378606262454e+01
-2.787667477856495069e+01 -1.866414671836067640e+01 -4.197167370693751565e+01 -1.866414671836067640e+01 -3.909011118622880332e+01 -1.703151051119094816e+01 -4.197167370693751565e+01 -1.703151051119094816e+01 -5.651702752786687967e+01
-6.599384654965258790e+01 -2.035313033169446939e+01 -1.795874948031574991e+00 -2.035313033169446939e+01 -4.797963379440415110e+01 9.951665923572775796e+00 -1.795874948031574991e+00 9.951665923572775796e+00 -1.446439197391050691e+01
-9.176718563124553896e+01 -1.252243216483257982e+01 7.323447355748839982e-01 -1.252243216483257982e+01 -7.077556877633237775e+01 -1.510945832025700675e+01 7.323447355748839982e-01 -1.510945832025700675e+01 -4.332487011776744623e+01
-2.459460234043386251e+01 1.985808789618632986e+01 8.397895577735630113e-01 1.985808789618632986e+01 -2.940012471396077842e+01 -8.864412537869135189e-01 8.397895577735630113e-01 -8.864412537869135189e-01 -4.041978203065311703e+01
-1.069839246932952506e+02 1.232309681859591777e+01 3.654390448586166684e+00 1.232309681859591777e+01 -1.024603086316504772e+02 6.265872993649782785e+00 3.654390448586166684e+00 6.265872993649782785e+00 -1.265807846607043246e+02
-3.564627095575353621e+01 1.170731543761628757e+01 -1.277469812641790448e+01 1.170731543761628757e+01 -3.584673313143960094e+00 -9.360189965929290423e+00 -1.277469812641790448e+01 -9.360189965929290423e+00 -6.734622642001497184e+01
-2.857328689166656943e+01 1.591321852239141066e+01 5.653543709026521036e+00 1.591321852239141066e+01 -5.594518154801568954e+01 -6.505710448155778598e-03 5.653543709026521036e+00 -6.505710448155778598e-03 -6.720242836349231652e+01
-2.960058240841129873e+01 1.740083679299175401e+01 7.075092882469911970e+00 1.740083679299175401e+01 -8.690590790946268740e+00 2.359302501562342869e+01 7.075092882469911970e+00 2.359302501562342869e+01 -3.631016560103974911e+01
-2.175293831850648729e+00 5.206748297324857333e+00 -5.523011920772616712e+00 5.206748297324857333e+00 -2.705957092630412220e+01 5.908432359100288522e+00 -5.523011920772616712e+00 5.908432359100288522e+00 -3.332136544010622003e+01
7.980685330844442760e+00 -8.472558099044816160e+00 2.214529713189827120e+01 -8.472558099044816160e+00 -5.357362348184358325e+01 5.606654473798803195e+01 2.214529713189827120e+01 5.606654473798803195e+01 -5.234710149970883464e+00
-4.339870347997428013e+01 3.567707764970536211e+00 -1.757949193616970263e+01 3.567707764970536211e+00 -7.257616949003478624e+01 5.176054003361398870e+00 -1.757949193616970263e+01 5.176054003361398870e+00 -5.791127054182018696e+01
-5.271697006104727734e+01 -1.312201249337172548e+01 2.357531765851510386e+01 -1.312201249337172548e+01 -3.125012034781206793e+01 -8.149145495869308808e-02 2.357531765851510386e+01 -8.149145495869308808e-02 -1.030916847803725318e+02
-9.667419467652482012e+01 -2.427196323182075943e+01 -9.580732376745555001e+00 -2.427196323182075943e+01 -3.694625360006020287e+01 -2.156578627652466551e+01 -9.580732376745555001e+00 -2.156578627652466551e+01 -6.520606924714498120e+01
-7.860785109835751427e+01 -3.549229021483307633e+01 2.212530197056973513e+00 -3.549229021483307633e+01 -6.069797683516554798e+01 1.199542635956232317e+01 2.212530197056973513e+00 1.199542635956232317e+01 -2.978685684578086779e+01
-6.584337519330652810e+01 8.166257423242907265e+00 -5.581075446437594678e+00 8.166257423242907265e+00 -5.400667266400018462e+01 -7.377195476045620204e+00 -5.581075446437594678e+00 -7.377195476045620204e+00 -5.415072442340731129e+01
-7.895773191964298121e+01 -8.689701928735637182e+00 -1.183756514005657401e+01 -8.689701928735637182e+00 -6.462266431461905825e+01 5.508792699821546179e+00 -1.183756514005657401e+01 5.508792699821546179e+00 -7.919634818673399934e+01
-1.068341213649277535e+02 -6.622703920550277346e+00 -1.366897090521715796e+01 -6.622703920550277346e+00 -9.148542052740695851e+01 3.016540714676197155e+01 -1.366897090521715796e+01 3.016540714676197155e+01 -9.344545579477434671e+01
-3.092880651050837759e+00 2.445907115702945589e+01 1.845324701699287928e+01 2.445907115702945589e+01 -4.810077973557802977e+01 5.449574161054751897e+01 1.845324701699287928e+01 5.449574161054751897e+01 -1.067146770523843742e+02
-9.190557927471742516e+01 4.746265135061952023e+00 -2.709323638515873656e-01 4.746265135061952023e+00 -3.342867645957408484e+01 -1.155085581241929837e+01 -2.709323638515873656e-01 -1.155085581241929837e+01 -3.712097785825766749e+01
-3.233507720950085940e+01 -2.860213434587121029e+01 3.231310543808478819e+00 -2.860213434587121029e+01 -7.569605672205291569e+01 -3.623216644477778914e+01 3.231310543808478819e+00 -3.623216644477778914e+01 -5.677588203577543169e+01
-9.992760727160505496e+01 -7.084215961524920502e+00 2.085797744303393486e+01 -7.084215961524920502e+00 -1.025259262566974314e+02 7.743171316154761064e-01 2.085797744303393486e+01 7.743171316154761064e-01 -7.338359082245509057e+01
-8.050988646159952111e+01 -1.230684441248511618e+01 -7.299010013000094332e+00 -1.230684441248511618e+01 -3.788199975145798959e+01 8.216001235301245487e+00 -7.299010013000094332e+00 8.216001235301245487e+00 -1.701018818870049643e+01
-4.727858803279490019e+01 1.818949321219420767e+01 -3.552413388894164115e+01 1.818949321219420767e+01 -4.882157261596260156e+01 1.147094350423132170e+01 -3.552413388894164115e+01 1.147094350423132170e+01 -5.133530930114174851e+01
-6.350462718147221608e+01 3.944524831537084708e+01 1.429961924863169820e+01 3.944524831537084708e+01 -5.708097657157263427e+01 -9.895109959348179496e-01 1.429961924863169820e+01 -9.895109959348179496e-01 -8.012585813764788156e+01
-4.640972491560089708e+01 1.456958278426231068e+01 4.936723926236481930e+00 1.456958278426231068e+01 -5.472508224553757827e+01 -8.301582250984550271e+00 4.936723926236481930e+00 -8.301582250984550271e+00 -6.218582656557187960e+01
-1.014021093706389536e+02 1.341550341394506241e+01 -1.075906662218713450e+01 1.341550341394506241e+01 -9.272103265119561399e+01 2.977241040224110691e+01 -1.075906662218713450e+01 2.977241040224110691e+01 -9.497140695871240723e+01
-4.516479985847181666e+01 1.269805846438337049e+01 9.218880262789262758e+00 1.269805846438337049e+01 -7.654181746553358323e+01 -1.941196283627084629e+00 9.218880262789262758e+00 -1.941196283627084629e+00 -5.776288172022585599e+01
-3.232209210183669512e+01 4.338762848431769292e+00 1.506216399274180340e+01 4.338762848431769292e+00 -4.206635723297621610e+01 4.486499668345552472e+00 1.506216399274180340e+01 4.486499668345552472e+00 -4.908401735194270543e+01
-3.417311846486273907e+01 4.268591524339316834e+01 4.196012808081848533e+01 4.268591524339316834e+01 -6.469452920556375375e+01 1.248509588842792084e+01 4.196012808081848533e+01 1.248509588842792084e+01 1.267393840970858054e+00
-9.294811310781585689e+01 -1.634629873825353030e+01 -1.159265420576076444e+01 -1.634629873825353030e+01 -6.074392418626878509e+01 2.498651855782789966e+01 -1.159265420576076444e+01 2.498651855782789966e+01 -4.339403943038003320e+01
-7.729735363210043886e+01 3.724366214708805956e+01 4.173016093351700206e+00 3.724366214708805956e+01 -6.799336496963940135e+01 -8.378074630139376922e+00 4.173016093351700206e+00 -8.378074630139376922e+00 -6.821488857745805490e+01
-9.276928581373744009e+01 -3.128376958184635726e+01 2.536395764050234547e+01 -3.128376958184635726e+01 -2.024130019271454373e+01 5.600604055954347515e+00 2.536395764050234547e+01 5.600604055954347515e+00 -5.734650899873921048e+01
-9.210122839754951940e+01 -1.317017338959737494e+01 4.099146071537835923e+01 -1.317017338959737494e+01 -1.039948557383702052e+02 -8.288283605271910659e+00 4.099146071537835923e+01 -8.288283605271910659e+00 -4.059326044206489570e+01
-9.146249809582039347e+01 4.802990618708491155e+01 -2.775562772453736216e+01 4.802990618708491155e+01 -9.958200055648052285e+01 1.402320240021674635e+01 -2.775562772453736216e+01 1.402320240021674635e+01 -1.043049852130786235e+02
-7.608245003334330647e+01 -1.648410756374732955e+01 1.677579659009185420e+01 -1.648410756374732955e+01 -6.380351134438931382e+01 1.761763067383183667e+01 1.677579659009185420e+01 1.761763067383183667e+01 -8.439654318863767912e+01
-1.042676511966479183e+02 3.459072059516520881e+01 3.234864756005585917e+01 3.459072059516520881e+01 -8.415778999104016123e+01 -3.773927818964388337e+01 3.234864756005585917e+01 -3.773927818964388337e+01 -9.585006129721949719e+01
-7.747531826930871546e+01 1.165925310748925270e+01 8.971948039980954803e+00 1.165925310748925270e+01 -3.863939896616202674e+01 1.984613193028582412e+00 8.971948039980954803e+00 1.984613193028582412e+00 -9.531680954656683014e+01
-7.867974339668234052e+01 -6.746224111572886706e+00 1.649096392161810698e+01 -6.746224111572886706e+00 -6.421473708416954196e+01 6.855937447778139848e+00 1.649096392161810698e+01 6.855937447778139848e+00 -1.086739294932788340e+02
-7.635104121148374645e+01 -2.433516269852936631e+01 -2.328527647813183776e+00 -2.433516269852936631e+01 -1.700740921602440503e+00 1.103810732983505538e+01 -2.328527647813183776e+00 1.103810732983505538e+01 -5.032015521410605174e+01
-2.692727605701359295e+01 -8.019901330487135382e+00 -5.266380486741357281e+00 -8.019901330487135382e+00 -4.706590619891850480e+01 -1.368636101909183900e+01 -5.266380486741357281e+00 -1.368636101909183900e+01 -7.435587646322372279e+01
-1.833845816183409028e+01 -2.556559726347518691e+01 1.064801515218382377e+01 -2.556559726347518691e+01 -2.996784047076846136e+01 -2.138405985473353965e+01 1.064801515218382377e+01 -2.138405985473353965e+01 -6.187889218383988066e+01
-3.440693582822845542e+01 8.832264616803884749e+00 -2.790570309811174354e+01 8.832264616803884749e+00 1.393333758781596998e+01 -9.500106172653911329e+00 -2.790570309811174354e+01 -9.500106172653911329e+00 -6.559573804109409423e+01
-3.662077488725802965e+01 2.540613553557243876e+01 -4.703120664046330113e+00 2.540613553557243876e+01 -7.171341531764058175e+01 -3.006769247555643787e+00 -4.703120664046330113e+00 -3.006769247555643787e+00 -1.822046236044272050e+01
-3.694122089703609646e+01 -4.791243999122909436e-01 -9.197154485547573088e+00 -4.791243999122909436e-01 -1.091618087294703372e+02 -3.015106636110985505e+01 -9.197154485547573088e+00 -3.015106636110985505e+01 -4.352905875824155402e+01
-9.095623864890160348e+01 -3.423760755020723678e+01 2.956438796015193660e+01 -3.423760755020723678e+01 -3.416205945208921690e+01 7.618051162232622464e-02 2.956438796015193660e+01 7.618051162232622464e-02 -4.959454193221312579e+01
6.642011826715387146e-01 -6.856609103669837779e+00 -2.078148907113809329e+01 -6.856609103669837779e+00 -5.393158316267418151e+00 -2.725029709726696936e+01 -2.078148907113809329e+01 -2.725029709726696936e+01 -5.730724561401009254e+01
-7.183382203485777495e+01 -6.936606430967710679e+00 -1.886364619720551872e+01 -6.936606430967710679e+00 -1.025741073395260798e+02 -3.594070382027737764e+00 -1.886364619720551872e+01 -3.594070382027737764e+00 -8.823770603063653084e+01
-4.479134464914368152e+01 -2.067359769452856000e+01 -2.615017039178267666e+01 -2.067359769452856000e+01 -9.902528399027444195e+00 -2.135167847535289098e+01 -2.615017039178267666e+01 -2.135167847535289098e+01 -7.380579533126146430e+01
-1.022925480529838183e+02 3.312283879633590278e+00 -1.349449762859323521e+01 3.312283879633590278e+00 -6.663575110190326711e+01 3.988229309573484982e-01 -1.349449762859323521e+01 3.988229309573484982e-01 -2.653827310183077870e+01
-5.958994215121881410e+01 -5.208542357879938578e+00 -1.051365790667298050e+01 -5.208542357879938578e+00 -5.629167944251180700e+01 -1.372189970265794656e+01 -1.051365790667298050e+01 -1.372189970265794656e+01 -4.012180007228162992e+01
-9.082177580068618283e+01 -1.012391672513910734e+01 -1.480257173265970572e+01 -1.012391672513910734e+01 -9.369469727223830091e+01 -3.253418518864651787e+01 -1.480257173265970572e+01 -3.253418518864651787e+01 -4.848826198630437290e+01
-4.010538155820051998e+01 -2.130593982928959562e+01 5.622818236765276367e+00 -2.130593982928959562e+01 -7.334254713908340761e+01 -1.992122242470483862e+00 5.622818236765276367e+00 -1.992122242470483862e+00 -6.332174835174066629e+01
-4.760751905012745056e+01 -1.699856416103148149e+01 -6.288095450284707510e+00 -1.699856416103148149e+01 -7.071413071441833154e+01 -3.000153727525086911e+00 -6.288095450284707510e+00 -3.000153727525086911e+00 -2.392334428637590804e+01
-4.318752883378559915e+01 1.146320391778609249e+01 9.589683926620761412e+00 1.146320391778609249e+01 -8.681283445973133439e+01 -2.882379576900088125e+01 9.589683926620761412e+00 -2.882379576900088125e+01 -4.407341674035523482e+01
-4.962712805457837106e+01 1.550988704054316791e+01 2.449324680324449943e+01 1.550988704054316791e+01 -1.017451709634153190e+02 -5.403793925553758148e-01 2.449324680324449943e+01 -5.403793925553758148e-01 -3.476756439812827182e+01
-2.381624197575372293e+01 1.507881879825962557e+01 5.834859479249367986e+00 1.507881879825962557e+01 -6.879379571219764955e+01 4.452534028810125477e+01 5.834859479249367986e+00 4.452534028810125477e+01 -6.855182163086007563e+01
-7.741365724247984303e+01 1.147551314338615036e+01 -2.407777820134585411e+01 1.147551314338615036e+01 -3.560890947020847364e+01 1.451189153985214908e+01 -2.407777820134585411e+01 1.451189153985214908e+01 -7.976793063372585380e+01
-8.526841458401131035e+01 -2.981948749810521715e+00 2.851678477490675334e+01 -2.981948749810521715e+00 -8.641595055086530408e+01 2.103360892666113457e+01 2.851678477490675334e+01 2.103360892666113457e+01 -6.021727115677855835e+01
-6.273695160192711029e+01 -1.800987216330518592e+01 2.447386686987101001e+01 -1.800987216330518592e+01 -1.286283877807537408e+02 5.618869134131053711e-01 2.447386686987101001e+01 5.618869134131053711e-01 -8.701390956730391224e+01
-1.407965993927030013e+02 3.350006336612029401e+01 -2.397326746261052222e+01 3.350006336612029401e+01 -9.387239279985240614e+01 -1.570629271403861438e+01 -2.397326746261052222e+01 -1.570629271403861438e+01 -1.046036204358962891e+02
-1.607493408024941894e+00 2.867239930023390215e+01 2.482175073660199516e+01 2.867239930023390215e+01 -3.787692589169952129e+01 2.992949466227671884e+00 2.482175073660199516e+01 2.992949466227671884e+00 -3.571138273147015951e+01
-5.946018583612952568e+01 3.099747918773323452e+00 1.352908366759005832e+00 3.099747918773323452e+00 -8.555005129120311835e+01 -9.949669632209328540e+00 1.352908366759005832e+00 -9.949669632209328540e+00 -5.534034090123891758e+01
-7.048349874133097615e+01 1.442559954164744029e+00 1.031269015374144971e+01 1.442559954164744029e+00 -5.641985240245451649e+01 -2.809497952059499259e-01 1.031269015374144971e+01 -2.809497952059499259e-01 -3.530667507243602188e+01
-7.479498525728651259e+01 1.397943917971476502e+01 1.199584172483113775e+00 1.397943917971476502e+01 -6.208650788558804834e+01 2.255047934201209969e+00 1.199584172483113775e+00 2.255047934201209969e+00 -5.022531485197085033e+01
-1.660104815267752087e+02 3.205745919664757793e+01 2.898317105164734642e+01 3.205745919664757793e+01 -9.626591890309636312e+01 1.167657461800525276e+01 2.898317105164734642e+01 1.167657461800525276e+01 -8.516538032269355085e+01
-2.236250263971088614e+01 -1.812422587774367599e+01 1.077134083994861236e+01 -1.812422587774367599e+01 -2.899529142979738339e+01 7.743493953467750046e+00 1.077134083994861236e+01 7.743493953467750046e+00 -1.725317165562464439e+01
-5.916658572002012306e+01 -1.973526414302283882e+01 -4.281595282076177256e+01 -1.973526414302283882e+01 -5.584288376103739182e+01 -1.202384637977758253e+01 -4.281595282076177256e+01 -1.202384637977758253e+01 -4.251602630413751172e+01
-3.865566519013941615e+01 2.832177276324374660e+01 -1.981842682730540872e+00 2.832177276324374660e+01 -9.794579787236281732e+01 -1.644025081099242769e+01 -1.981842682730540872e+00 -1.644025081099242769e+01 -3.093577102543821766e+01
-1.323988064074827342e+01 -2.806750687202840489e+00 -6.307210905370519427e+00 -2.806750687202840489e+00 -5.727130139002824905e+01 -4.026573286767246884e+01 -6.307210905370519427e+00 -4.026573286767246884e+01 -1.801949756176644968e+01
-8.207949033867528499e+01 -3.395830809608904843e+01 -5.033515419227518883e+00 -3.395830809608904843e+01 -6.799453561332751406e+01 3.992134976954095293e+01 -5.033515419227518883e+00 3.992134976954095293e+01 -6.932944106558393571e+01
-1.102282429885374455e+02 -1.652856780935713488e+01 -1.244651608742512749e+01 -1.652856780935713488e+01 -5.449192583859050387e+01 3.497443304949104004e+01 -1.244651608742512749e+01 3.497443304949104004e+01 2.968582687672370568e+01
-4.280678988633803783e+01 1.015573235666186319e-01 4.423078390610398714e+01 1.015573235666186319e-01 -1.184559395487297451e+02 -1.597215225315598985e+01 4.423078390610398714e+01 -1.597215225315598985e+01 -5.157401489828752261e+01
-4.156889980964158582e+01 1.681415379558368528e+01 -1.369911466606032668e+01 1.681415379558368528e+01 -4.648175178840944000e+01 4.069614929300213291e+00 -1.369911466606032668e+01 4.069614929300213291e+00 -5.810162986804165541e+01
-3.326672187720414087e+01 -1.856894685801864142e+01 -4.093629933159922984e+01 -1.856894685801864142e+01 -8.969194776351716314e+01 5.105135475104267329e+01 -4.093629933159922984e+01 5.105135475104267329e+01 -5.008556943307878129e+01
-7.395050147624330350e+01 1.129368406517691881e+01 -5.185694726899255258e+00 1.129368406517691881e+01 -6.955531049424732259e+01 -1.407255557432538318e+01 -5.185694726899255258e+00 -1.407255557432538318e+01 -6.861296947338600205e+01
-6.832332442921990889e+01 -3.978571957863722197e+00 4.388343827681359777e+00 -3.978571957863722197e+00 -2.340338001918425803e+01 -1.681791542453438737e+01 4.388343827681359777e+00 -1.681791542453438737e+01 -5.293969373696355518e+01
-1.872269155355705195e+01 3.611440464921429339e+01 -3.313357828401566252e+01 3.611440464921429339e+01 -3.143123431965566539e+01 -2.016357338274583810e+01 -3.313357828401566252e+01 -2.016357338274583810e+01 -2.963719256657343593e+01
4.156255881396218932e+00 -1.783968844214025751e+01 4.316677164498701202e+00 -1.783968844214025751e+01 -5.486609194676090340e+01 2.043484447732044984e+01 4.316677164498701202e+00 2.043484447732044984e+01 1.163261758508197730e+01
-4.667370331648669435e+01 1.838391406612669243e+01 -6.767183296094138711e+00 1.838391406612669243e+01 -6.024988949082183609e+01 -5.394128149635969649e+00 -6.767183296094138711e+00 -5.394128149635969649e+00 7.547463651000299478e+00
-3.068892853800260312e+01 -1.954463014321918379e+01 4.875395632038189930e+00 -1.954463014321918379e+01 -6.309574985667977032e+00 4.762532476226339462e+00 4.875395632038189930e+00 4.762532476226339462e+00 -3.467095241179420384e+01
-1.357734149161484538e+02 -3.402086759543030325e+01 3.112175625036925908e+01 -3.402086759543030325e+01 -4.734215440692452859e+01 -3.310650493515904458e+01 3.112175625036925908e+01 -3.310650493515904458e+01 -4.255365615078771668e+01
-2.820143991277991091e+01 1.308982181824272928e+01 7.923642210245136486e-01 1.308982181824272928e+01 -5.168984799095968441e+01 -4.655803481850938397e+01 7.923642210245136486e-01 -4.655803481850938397e+01 -9.428390522133005902e+01
-3.676048221514023595e+01 -7.548036845506348236e+00 7.927444560218746439e+00 -7.548036845506348236e+00 -1.103134295007539407e+02 -2.959388308879923812e+01 7.927444560218746439e+00 -2.959388308879923812e+01 -8.888557914695188344e+01
-5.530379638974501688e+01 -4.323636780087521947e-01 -2.295576993817377787e+00 -4.323636780087521947e-01 -7.507342955430809184e+01 7.986512400268772183e+00 -2.295576993817377787e+00 7.986512400268772183e+00 -8.827648706622204600e+01
-9.354514809736349434e+01 -7.272718615070118631e+00 -4.361425764987616027e+00 -7.272718615070118631e+00 -8.844723642208008130e+01 -8.988483803480266099e-01 -4.361425764987616027e+00 -8.988483803480266099e-01 -9.406276588546107575e+01
-8.645106790152344445e+01 2.533000459067808130e+00 5.272232203788821181e+00 2.533000459067808130e+00 -5.643857556714144863e+01 4.456435023462446687e-01 5.272232203788821181e+00 4.456435023462446687e-01 -9.211009667130635137e+01
-4.671139957642191121e+01 3.304474758158631431e+01 -1.120770157919439569e+01 3.304474758158631431e+01 -6.301967478050264049e+01 1.168312084882611934e+01 -1.120770157919439569e+01 1.168312084882611934e+01 -4.646075121448679113e+01
-5.973919578153304144e+01 5.157873465364043675e+00 5.708963252358990559e+01 5.157873465364043675e+00 -7.881648170349912164e+01 3.145047565600146555e+01 5.708963252358990559e+01 3.145047565600146555e+01 -5.943504920151749360e+01
-4.851042397771070824e+01 -2.001239456851377341e+01 9.854709292570008827e+00 -2.001239456851377341e+01 -1.058893038503189743e+01 5.475440419148415394e+00 9.854709292570008827e+00 5.475440419148415394e+00 -5.240135331713255340e+01
-5.583151405704925452e+01 5.324922451240828991e+01 -5.956257226547101169e+01 5.324922451240828991e+01 -6.543871534891987096e+01 6.841971947771583906e+00 -5.956257226547101169e+01 6.841971947771583906e+00 -4.253153773259359838e+01
-9.683435180143646903e+01 1.501123925246152524e+01 3.255647793488084751e+00 1.501123925246152524e+01 -5.500757183955048646e+01 -3.422548247609762839e+00 3.255647793488084751e+00 -3.422548247609762839e+00 -4.307716185118263752e+01
-8.891099483676038062e+01 3.494695014476205586e+01 -3.058673285564959698e+01 3.494695014476205586e+01 -5.140823674461037029e+01 1.871234553297848180e+01 -3.058673285564959698e+01 1.871234553297848180e+01 -9.492457821646185323e+01
-4.361238734053522847e+01 1.102812040273757566e+00 1.595701603115803913e+01 1.102812040273757566e+00 -5.024728523398205482e+01 -2.523884738693585916e+01 1.595701603115803913e+01 -2.523884738693585916e+01 -5.085841602409666429e+00
-8.638726674095175895e+01 3.157036108462494184e+01 7.446608351160593386e+00 3.157036108462494184e+01 -2.338691839758701008e+01 1.587770827430586840e+00 7.446608351160593386e+00 1.587770827430586840e+00 -1.703468346478394224e+01
-9.614558668214647241e+01 -1.015591427222004128e+01 1.104027227957982804e+00 -1.015591427222004128e+01 -6.170941110537705043e+01 1.112436313285373934e+01 1.104027227957982804e+00 1.112436313285373934e+01 -1.040960925195085309e+02
-9.372086031509394388e+01 2.482885701142821588e+01 -1.642879574245963070e+01 2.482885701142821588e+01 -4.994834815099532221e+01 -6.433192459120673945e+00 -1.642879574245963070e+01 -6.433192459120673945e+00 -5.527132652314065808e+01
5.758046154705770192e+00 3.413110854470430411e+01 -2.842606490116769180e+01 3.413110854470430411e+01 -5.663208413725266865e+01 -7.790059689081277661e+00 -2.842606490116769180e+01 -7.790059689081277661e+00 -5.554268124844002585e+01
2.440859220569124943e+01 -1.446555590662905111e+01 2.334347603202076726e+01 -1.446555590662905111e+01 -5.870582526778843402e+01 -3.855398590984411844e-01 2.334347603202076726e+01 -3.855398590984411844e-01 -2.253040912026735398e+01
-8.254737088464612782e+01 -1.086183797790699757e+01 -5.098404964830058894e+00 -1.086183797790699757e+01 -1.111875395444056949e+02 -1.454596152657314612e+01 -5.098404964830058894e+00 -1.454596152657314612e+01 -2.052734696099810918e+01
-1.800618255244704358e+01 -4.090824485948258982e+00 -1.212583425898940526e+01 -4.090824485948258982e+00 -5.855872462692040870e+00 -1.013673312994778541e+01 -1.212583425898940526e+01 -1.013673312994778541e+01 -2.232280986978433646e+01
-5.623382022441276007e+01 -1.021659199920642003e+01 6.436544669531929053e+00 -1.021659199920642003e+01 -2.955765967151510054e+01 -5.490256870026468228e+00 6.436544669531929053e+00 -5.490256870026468228e+00 -5.944371812674731359e+01
-5.489946440495705815e+01 1.751741880552881625e+01 1.864550274155349352e-01 1.751741880552881625e+01 -9.443946209990292573e+01 -5.088380715857961256e+00 1.864550274155349352e-01 -5.088380715857961256e+00 -8.558814617437023742e+01
-9.259717663248822817e+01 1.408239285236249749e+01 -2.420949420045593214e+01 1.408239285236249749e+01 -9.179393672921729319e+01 -7.268272997137577462e+00 -2.420949420045593214e+01 -7.268272997137577462e+00 -1.054575101559515957e+02
-5.631246898823970781e+01 2.236610803242522749e+01 -4.575934437288974310e-01 2.236610803242522749e+01 -5.384977588156239392e+01 1.496235527817515987e+01 -4.575934437288974310e-01 1.496235527817515987e+01 -4.705952581152418901e+01
-3.945016929586043375e+01 -3.439832142275191984e+01 -1.090395259347243240e+01 -3.439832142275191984e+01 -6.876517583434198855e+01 4.251532225385182073e+01 -1.090395259347243240e+01 4.251532225385182073e+01 -6.358327740477263745e+01
-6.243082344223051905e+01 1.529396792128221882e+01 -6.436510719403453429e+00 1.529396792128221882e+01 -8.866874908902151731e+01 4.395023850964884105e+01 -6.436510719403453429e+00 4.395023850964884105e+01 -6.087152149204825236e+01
5.009477565735864601e+01 -1.966774432405012263e+01 1.234568691342655811e+01 -1.966774432405012263e+01 -6.618580381432559001e+00 -2.333487930663505594e+01 1.234568691342655811e+01 -2.333487930663505594e+01 -1.852075523697371295e+01
-8.471979891532883755e+01 -2.719998970557752926e+01 -2.548116670312530374e+01 -2.719998970557752926e+01 -9.747461754140964274e+01 2.261863223707889148e+01 -2.548116670312530374e+01 2.261863223707889148e+01 -4.714571026531596942e+01
-1.032860574189755454e+02 1.107482916063306888e+01 -3.175078938615201452e+01 1.107482916063306888e+01 -4.498738696354431710e+01 -2.567213050122016327e+01 -3.175078938615201452e+01 -2.567213050122016327e+01 -5.810128903253598764e+01
-1.219209655786233810e+02 3.707198514243372500e+01 -2.592798440544420657e+01 3.707198514243372500e+01 -7.934203755477062714e+01 1.676846158433306400e+01 -2.592798440544420657e+01 1.676846158433306400e+01 -6.151198840538283719e+01
-9.813944413268987432e+01 4.225451941434873504e+01 1.469653143531849260e+01 4.225451941434873504e+01 -4.816164077388418718e+01 -2.377132581400826439e+01 1.469653143531849260e+01 -2.377132581400826439e+01 -5.821368517348377480e+01
-3.643248572640253702e+00 5.349788093870375860e+01 3.966750091376403553e+00 5.349788093870375860e+01 -2.811277126741376264e+01 -1.159616531790309857e+01 3.966750091376403553e+00 -1.159616531790309857e+01 -6.934808587160367743e+00
-5.966556833744531474e+01 -1.215101305247292274e+01 -1.938565623542709337e+00 -1.215101305247292274e+01 -7.065308016485410292e+01 -8.669556826194488863e+00 -1.938565623542709337e+00 -8.669556826194488863e+00 -1.001015429972000561e+02
-3.550020476062635311e+01 1.601578780211558595e+01 5.461377436080213643e-01 1.601578780211558595e+01 -1.108022649321185185e+02 -1.024763278858132765e+01 5.461377436080213643e-01 -1.024763278858132765e+01 -2.723834886385290588e+01
-5.781488517054227572e+01 1.301560849512608975e+01 -1.855142479617283158e+01 1.301560849512608975e+01 -7.525273815429677882e+01 1.587553997131617933e+01 -1.855142479617283158e+01 1.587553997131617933e+01 -7.084465157127718271e+01
-5.457874483553379008e+01 1.770555242853738420e+01 8.444472283859624895e+00 1.770555242853738420e+01 -5.916653384985318809e+01 -3.452013939835752865e+01 8.444472283859624895e+00 -3.452013939835752865e+01 -5.264352300490434544e+01
-7.815192650130344987e+01 -3.190472631999423658e+00 -1.180991427661610516e+01 -3.190472631999423658e+00 -9.014028623112137950e+01 -1.577509560082974538e+01 -1.180991427661610516e+01 -1.577509560082974538e+01 -7.958517396717066106e+01
-4.913010132364718885e+01 -1.509067874361977069e+01 -2.208695661546207845e+01 -1.509067874361977069e+01 -1.083506486113039280e+01 -9.527673175637296765e+00 -2.208695661546207845e+01 -9.527673175637296765e+00 -3.905846130245085135e+01
-4.765144073954182602e+01 -1.767188912326488648e+01 2.399017271411085162e+01 -1.767188912326488648e+01 -3.915713375553977915e+00 -4.618667446805946319e-01 2.399017271411085162e+01 -4.618667446805946319e-01 -3.226174049949968037e+01
-4.640659241214371633e+01 1.497533693364311702e+01 -2.080820240886975189e-02 1.497533693364311702e+01 -8.426778496420423892e+01 6.237551321626980894e+00 -2.080820240886975189e-02 6.237551321626980894e+00 -4.483500380672477093e+01
-5.544379814938268680e+01 1.439507706419556143e+01 4.029913003992115605e+00 1.439507706419556143e+01 -2.348981475622673898e+01 1.245561964157555757e+01 4.029913003992115605e+00 1.245561964157555757e+01 -1.080641055339460621e+01
-7.184698375867601783e+01 -1.530005733496081177e+01 -3.377398684811203111e+01 -1.530005733496081177e+01 1.324141176377091966e+01 -8.304690349636448587e+00 -3.377398684811203111e+01 -8.304690349636448587e+00 -5.114294405870032989e+01
-2.465341905293664837e+01 -3.252140716889450722e+00 -2.540894227826657215e+01 -3.252140716889450722e+00 -5.063813782987789835e+00 -8.943762351829343871e+00 -2.540894227826657215e+01 -8.943762351829343871e+00 -7.179170554843761920e+01
-6.531624876734909435e+01 2.364488768604942948e+00 -4.198344011908046625e+00 2.364488768604942948e+00 -3.406556678888988188e+01 -1.067256727436719466e+01 -4.198344011908046625e+00 -1.067256727436719466e+01 -1.269918804960583998e+02
-7.813944971421146590e+01 1.361779001937390987e+01 -8.496295285242503326e+00 1.361779001937390987e+01 -1.102718987117090705e+02 1.539428047633335339e+01 -8.496295285242503326e+00 1.539428047633335339e+01 -5.325878873576304073e+01
-8.838367293938420133e+00 -1.115311846132957668e-01 -3.902812647100724064e+00 -1.115311846132957668e-01 -8.326035644267194868e+01 -9.350352596908759750e+00 -3.902812647100724064e+00 -9.350352596908759750e+00 -6.390702582805889165e+01
-4.257004777766039894e+01 1.407951832396307701e+01 -2.667390256393678882e+00 1.407951832396307701e+01 -8.419123188188650886e+01 2.072126735994153890e+01 -2.667390256393678882e+00 2.072126735994153890e+01 2.694689447871967403e-01