7.610357999999999734e+00 3.209328000000000181e+00 3.105297999999999892e+00 5.435507999999999562e+00 2.687187999999999910e+00 1.714938000000000073e+00 1.585273800000000044e+01 4.049648000000000359e+00 1.262863800000000047e+01 8.437497999999999720e+00 3.777757999999999949e+00 8.095088000000000505e+00 1.413003800000000076e+01 1.078193800000000024e+01 4.427918000000000021e+00 2.990448000000000217e+00 7.646268000000000065e+00 1.598578000000000054e+00 1.284403799999999940e+01 2.253267999999999827e+00 1.303773799999999916e+01 6.474928000000000239e+00 1.124433800000000083e+01 1.204503799999999991e+01 1.756137999999999977e+00 3.708747999999999934e+00 1.355777999999999928e+00 1.499753800000000048e+01 8.575867999999999824e+00 3.945847999999999800e+00 9.225510000000000099e-01 1.304413800000000023e+01 1.007180800000000076e+01 8.584547999999999845e+00 1.580133799999999944e+01 1.446623800000000060e+01 4.170008000000000159e+00 1.557653799999999933e+01 7.971058000000000199e+00 9.123087999999999198e+00 1.522278000000000020e+00 8.908417999999999282e+00 5.846968000000000387e+00 1.301993799999999979e+01 1.387073799999999935e+01 1.381193799999999960e+01 1.157023799999999980e+01 9.089847999999999928e+00 2.523537999999999837e+00 1.774618000000000029e+00 1.091523800000000044e+01 1.266477000000000075e+00 4.492677999999999727e+00 1.391733800000000087e+01 6.428837999999999830e+00 4.835479999999999778e-01 6.442520000000000469e-01 9.534547999999999135e+00 4.834158000000000399e+00 9.821327999999999392e+00 3.841137999999999941e+00 5.255907999999999802e+00 5.274467999999999712e+00 1.368943800000000088e+01 1.396863800000000033e+01 1.054773800000000072e+01 7.569518000000000413e+00 1.266883799999999916e+01 1.077823799999999999e+01 8.509448000000000789e+00 1.852669999999999872e-01 1.352697999999999956e+00 9.085048000000000457e+00 1.452423800000000043e+01 1.020997799999999955e+01 6.477788000000000324e+00 1.279473800000000061e+01 1.617513800000000046e+01 4.886657999999999724e+00 7.863897999999999833e+00 1.727410000000000057e-01 4.531798000000000215e+00 9.262368000000000379e+00 6.058267999999999986e+00 6.261718000000000117e+00 1.599613800000000019e+01 4.299158000000000257e+00 1.508943799999999946e+01 1.002360000000000056e-01 1.650697999999999999e+00 1.622653800000000146e+01 9.595788000000000650e+00 1.259923799999999972e+01 1.161823799999999984e+01 1.351163799999999959e+01 1.118837000000000081e+00 1.532953799999999944e+01 6.103778000000000148e+00 9.192797999999999803e+00 4.505440000000000000e-01 4.376947999999999617e+00 6.164448000000000150e+00 4.627787999999999791e+00 5.894268000000000285e+00 1.535223799999999983e+01 1.194483800000000073e+01 2.005047999999999941e+00 3.569458000000000020e+00 1.331593799999999916e+01 9.105807999999999680e+00 2.790167999999999981e+00 1.337273800000000001e+01 1.511903799999999976e+01 1.295943800000000046e+01 1.080413800000000002e+01 7.973948000000000036e+00 1.720617999999999981e+00 3.585227999999999859e+00 1.320283799999999985e+01 7.102407999999999610e+00 1.560303799999999974e+01 1.638963800000000148e+01 1.315683800000000048e+01 4.162848000000000326e+00 1.183103799999999950e+01 5.137997999999999621e+00 1.565293800000000068e+01 1.561923799999999929e+01 4.266388000000000069e+00 8.516018000000000754e+00 1.581343799999999966e+01 5.668228000000000044e+00 1.548703800000000008e+01 1.178223799999999954e+01 1.695029999999999870e-01 4.163558000000000092e+00 1.516513800000000067e+01 3.585427999999999837e+00 2.714318000000000008e+00 6.030788000000000260e+00 1.375133800000000051e+01 3.506937999999999889e+00 8.096517999999999660e+00 1.265643799999999963e+01 2.782887999999999806e+00 2.155758000000000063e+00 1.369773799999999930e+01 8.114008000000000109e+00 1.421733799999999981e+01 1.589453800000000072e+01 1.623073799999999878e+01 6.325447999999999737e+00 6.596237999999999602e+00 1.047553800000000024e+01 1.135433800000000026e+01 1.609313799999999972e+01 5.190687999999999747e+00 1.626193800000000067e+01 9.432828000000000657e+00 6.385837999999999681e+00 9.750818000000000652e+00 2.181170000000000053e-01 1.400533800000000006e+01 7.559500000000000108e-01 3.295878000000000085e+00 6.334838000000000413e+00 8.461498000000000630e+00 1.195223799999999947e+01 2.660877999999999854e+00 3.819317999999999991e+00 7.256677999999999962e+00 1.648973799999999912e+01 2.021317999999999948e+00 1.896287999999999974e+00 9.653567999999999927e+00 1.067443800000000032e+01 1.080193799999999982e+01 1.267513800000000046e+01 1.159613799999999983e+01 1.458413799999999938e+01 1.414723799999999976e+01 1.210853799999999936e+01 6.492587999999999582e+00 9.714218000000000686e+00 1.615533800000000042e+01 8.077968000000000259e+00 8.076057999999999737e+00 6.986498000000000097e+00 4.398267999999999844e+00 9.861738000000000781e+00 2.526888000000000023e+00 1.081113799999999969e+01 7.265498000000000012e+00 8.752238000000000184e+00 6.237288000000000388e+00 1.480263799999999996e+01 5.278167999999999971e+00 1.073903800000000075e+01 8.369578000000000628e+00 7.200668000000000291e+00 1.093803800000000059e+01 1.122073800000000077e+01 1.509973800000000033e+01 1.078643800000000041e+01 1.974328000000000083e+00 9.536258000000000123e+00 1.312893799999999978e+01 6.208008000000000415e+00 4.956648000000000387e+00 4.313678000000000345e+00 1.231869000000000103e+00 1.346513799999999961e+01 7.861387999999999820e+00 9.566197999999999979e+00 6.196247999999999756e+00 2.586408000000000040e+00 5.027618000000000364e+00 1.497023800000000016e+01 1.324243799999999993e+01 5.180687999999999960e+00 7.389999999999999347e-02 1.190003800000000034e+01 9.209457999999999700e+00 1.062703800000000065e+01 7.355997999999999593e+00 1.151863799999999927e+01 8.715460000000000429e-01 1.195283799999999985e+01 1.116763800000000018e+01 1.548973799999999912e+01 1.417503800000000069e+01 1.083709999999999951e-01 8.777967999999999549e+00 1.477413800000000066e+01 4.807609999999999939e-01 3.538620000000000099e-01 1.137223799999999940e+01 1.600953799999999916e+01 1.094163799999999931e+01 1.047723799999999983e+01 1.615403799999999990e+01 1.407693800000000017e+01 6.134888000000000119e+00 2.156248000000000165e+00 1.253463799999999928e+01 1.349787999999999988e+00 6.106057999999999986e+00 4.527108000000000132e+00 8.808177999999999841e+00 4.349447999999999759e+00 8.187618000000000507e+00 8.178437999999999874e+00 9.763757999999999271e+00 4.352249999999999730e-01 3.592417999999999889e+00 6.369449999999999834e-01 1.364283799999999935e+01 1.632603800000000049e+01 4.228798000000000279e+00 2.706548000000000176e+00 9.192047999999999774e+00 9.107267999999999475e+00 9.691967999999999250e+00 6.828940000000000010e-01 6.041170000000000151e-01 1.040363800000000083e+01 1.128865999999999925e+00 1.551923799999999964e+01 1.482323799999999991e+01 2.427108000000000043e+00 8.360480000000000134e-01 1.504933800000000055e+01 1.428413800000000045e+01 6.033108000000000359e+00 1.536493800000000043e+01 2.184887999999999941e+00 4.687128000000000405e+00 5.076739999999999586e-01 1.383243799999999979e+01 1.326263800000000082e+01 4.201757999999999882e+00 1.261223799999999962e+01 4.992837999999999887e+00 6.654087999999999781e+00 9.038968000000000558e+00 1.059353800000000057e+01 1.498033799999999971e+01 1.662193800000000010e+01 3.932087999999999806e+00 3.811198000000000086e+00 4.111969999999999792e-01 1.388363799999999948e+01 1.287853800000000071e+01 1.611528000000000072e+00 9.197419999999999485e-01 8.583638000000000545e+00 6.481599999999999584e-01 1.653137999999999996e+00 1.461963800000000013e+01 1.201103799999999922e+01 2.545208000000000137e+00 6.559237999999999680e+00 3.782718000000000025e+00 9.796867999999999910e+00 3.639688000000000034e+00 2.926527999999999796e+00 1.055406000000000066e+00 3.092427999999999955e+00 3.620137999999999856e+00 2.911448000000000036e+00 1.339363799999999927e+01 3.510168000000000177e+00 3.497419999999999973e-01 6.973398000000000430e+00 4.842757999999999896e+00 8.348637999999999337e+00 8.856327999999999534e+00 8.578217999999999677e+00 1.609493799999999908e+01 9.043520000000000447e-01 1.239663799999999938e+01 1.372343799999999980e+01 4.283950000000000258e-01 1.959138000000000046e+00 7.450649999999999773e-01 3.540027999999999953e+00 4.991568000000000005e+00 5.788637999999999728e+00 4.780000000000000221e-02 1.037913799999999931e+01 1.834678000000000031e+00 3.159508000000000205e+00 1.394283800000000006e+01 6.532000000000000306e-02 8.221928000000000125e+00 1.620463799999999921e+01 9.763950000000000129e-01 9.834208000000000283e+00 1.221033800000000014e+01 2.235777999999999821e+00 1.244613799999999948e+01 7.864677999999999614e+00 1.399813800000000086e+01 1.269343800000000044e+01 9.975787999999999656e+00 8.110208000000000084e+00 1.414673799999999915e+01 1.466663800000000073e+01 7.329798000000000258e+00 7.502618000000000009e+00 1.172673799999999922e+01 9.086297999999999320e+00 1.629683800000000105e+01 2.451328000000000173e+00 1.158533800000000014e+01 1.113323800000000041e+01 1.517733800000000066e+01 1.603938000000000086e+00 5.855978000000000350e+00 1.448793799999999976e+01 1.657293800000000061e+01 1.516493799999999936e+01 3.400907999999999820e+00 1.085343800000000059e+01 1.240993800000000036e+01 5.660500000000000531e-01 9.791097999999999857e+00 1.094683799999999962e+01 6.433708000000000204e+00 1.050553799999999960e+01 1.723217999999999916e+00 1.196953800000000001e+01 3.844707999999999792e+00 1.043543799999999955e+01 5.327247999999999983e+00 2.582208000000000059e+00 3.810147999999999868e+00 2.873220000000000218e-01 2.967368000000000006e+00 9.265038000000000551e+00 1.224373800000000045e+01 4.912708000000000297e+00 1.352183800000000069e+01 1.307273799999999930e+01 1.056443800000000088e+01 9.903828000000000742e+00 1.040493799999999958e+01 9.027948000000000306e+00 5.838417999999999886e+00 1.050873799999999925e+01 1.634573800000000077e+01 1.552893800000000013e+01 1.385763799999999968e+01 1.443133800000000022e+01 5.192487999999999992e+00 9.448957999999999302e+00 1.552343800000000051e+01 5.149257999999999669e+00 5.962358000000000047e+00 1.222704000000000013e+00 1.341973800000000061e+01 1.149523800000000051e+01 1.097758000000000012e+00 1.495957999999999899e+00 1.088233800000000073e+01 3.916237999999999886e+00 1.386878000000000055e+00 1.449883799999999923e+01 3.269407999999999870e+00 1.989357999999999960e+00 1.224373800000000045e+01 1.127323799999999920e+01 3.280578000000000216e+00 3.337867999999999835e+00 5.445158000000000165e+00 3.361148000000000025e+00 9.462728000000000250e+00 1.552703799999999923e+01 1.553363799999999983e+01 1.233459000000000083e+00 4.459348000000000312e+00 7.865948000000000384e+00 1.500418000000000029e+00 7.449417999999999651e+00 1.371223799999999926e+01 3.150259999999999727e-01 4.313748000000000360e+00 3.225588000000000122e+00 1.462938000000000072e+00 7.050658000000000314e+00 3.618758000000000141e+00 4.547647999999999691e+00 7.117708000000000368e+00 4.326857999999999649e+00 7.833178000000000196e+00 6.528547999999999796e+00 6.368357999999999741e+00 4.444857999999999976e+00 1.686428000000000038e+00 1.319623799999999925e+01 1.944660000000000000e-01 1.336357999999999935e+00 4.333097999999999672e+00 7.031337999999999866e+00 1.025570800000000027e+01 3.841638000000000108e+00 1.053473800000000082e+01 2.311017999999999795e+00 8.300197999999999965e+00 6.862690000000000179e-01 1.534273800000000065e+01 6.753137999999999863e+00 7.882888000000000339e+00 1.236943800000000060e+01 1.487463799999999914e+01 1.367293800000000026e+01 1.211883800000000022e+01 3.685188000000000130e+00 1.284243799999999958e+01 1.418443800000000010e+01 1.185923799999999950e+01 6.556859999999999911e-01 8.111637999999999238e+00 2.570830000000000060e-01 1.440283799999999914e+01 9.803948000000000107e+00 8.358798000000000172e+00 9.788759999999999684e-01 1.409388000000000085e+00 9.688617999999999952e+00 1.451213800000000020e+01 9.314947999999999340e+00 1.547363799999999934e+01 9.138918000000000319e+00 6.277327999999999797e+00 3.323017999999999805e+00 2.638447999999999904e+00 1.051313799999999965e+01 6.492727999999999611e+00 1.813458000000000014e+00 1.597603800000000085e+01 7.527607999999999855e+00 4.155908000000000158e+00 1.544963800000000020e+01 1.015540799999999955e+01 1.171113800000000005e+01 6.398007999999999917e+00 1.210323799999999927e+01 1.097863800000000012e+01 8.377057999999999893e+00 1.015135800000000010e+01 8.282237999999999545e+00 6.178168000000000326e+00 1.142513800000000046e+01 1.608943800000000124e+01 2.925307999999999797e+00 1.484373800000000010e+01 3.759187999999999974e+00 1.518693799999999960e+01 9.937317999999999429e+00 4.394968000000000430e+00 1.586023800000000072e+01 8.856528000000000844e+00 1.365773800000000016e+01 3.368198000000000025e+00 6.529338000000000086e+00 4.838898000000000366e+00 7.741967999999999961e+00 9.178917999999999466e+00 5.952739999999999698e-01 3.342277999999999860e+00 1.260193800000000053e+01 4.426117999999999775e+00 4.894718000000000124e+00 1.653723799999999855e+01 4.462457999999999814e+00 6.700738000000000305e+00 1.199363800000000069e+01 1.352383799999999958e+01 7.855967999999999840e+00 8.243377999999999872e+00 5.120198000000000249e+00 5.386688000000000365e+00 8.977097999999999800e+00 1.632813799999999915e+01 1.171423799999999993e+01 1.641753800000000041e+01 1.129063799999999951e+01 4.993748000000000076e+00 1.447223800000000082e+01 2.748747999999999969e+00 8.660607999999999862e+00 1.147623800000000038e+01 1.136013799999999918e+01 5.324057999999999957e+00 7.058358000000000132e+00 1.563723799999999997e+01 5.633627999999999858e+00 8.279549999999999965e-01 1.287713800000000042e+01 9.918568000000000495e+00 1.541303800000000024e+01 1.389213799999999921e+01 5.155180000000000318e-01 1.181673800000000085e+01 1.031057799999999958e+01 3.676337999999999884e+00 1.595793800000000040e+01 9.191708000000000212e+00 3.595848000000000155e+00 4.544298000000000393e+00 6.419857999999999620e+00 1.218363800000000019e+01 1.450313799999999986e+01 9.725177999999999656e+00 1.591903800000000047e+01 1.512953800000000015e+01 5.572108000000000061e+00 6.192027999999999643e+00 9.920757999999999299e+00 1.187273800000000001e+01 1.393383799999999972e+01 5.109647999999999968e+00 1.169483800000000073e+01 7.735418000000000127e+00 8.105707999999999913e+00 7.412927999999999962e+00 3.577999999999999931e-02 2.113957999999999782e+00 3.238748000000000182e+00 1.367033799999999921e+01 1.192853799999999964e+01 1.397023800000000016e+01 1.303863800000000062e+01 1.161153799999999947e+01 7.748088000000000086e+00 5.972777999999999921e+00 8.886867999999999768e+00 5.982967999999999620e+00 1.379543800000000076e+01 1.174533800000000028e+01 5.231568000000000218e+00 1.217505999999999977e+00 6.046788000000000274e+00 4.093358000000000274e+00 9.594167999999999807e+00 4.448377999999999943e+00 8.393677999999999528e+00 1.849619999999999875e-01 3.361317999999999806e+00 9.555000000000000160e-01 1.273413799999999974e+01 9.595089999999999453e-01 1.286703800000000086e+01 7.151420000000000554e-01 7.153278000000000247e+00 6.250318000000000040e+00 9.704487999999999559e+00 1.030631799999999920e+01 1.646283800000000141e+01 4.689837999999999951e+00 4.947058000000000177e+00 1.652903799999999990e+01 1.481373800000000074e+01 1.064833800000000075e+01 9.323448000000000846e+00 8.941608000000000445e+00 1.578727999999999909e+00 1.034723800000000082e+01 1.462403800000000054e+01 1.383643799999999935e+01 2.706998000000000015e+00 1.028571799999999925e+01 8.528059999999999530e-01 8.458308000000000604e+00 2.204527999999999821e+00 3.422457999999999778e+00 2.976408000000000165e+00 9.272698000000000107e+00 1.456613800000000047e+01 1.642753799999999842e+01 1.418923799999999957e+01 1.613303799999999910e+01 1.336423800000000028e+01 7.656690000000000440e-01 1.368063800000000008e+01 6.606367999999999796e+00 1.516203800000000079e+01 1.292843799999999987e+01 6.720177999999999763e+00 1.425843799999999995e+01 3.311717999999999940e+00 1.324853799999999993e+01 1.812888000000000055e+00 1.123413799999999974e+01 1.566618000000000066e+00 1.487083799999999911e+01 1.661303799999999953e+01 3.908258000000000010e+00 4.709818000000000282e+00 1.575313799999999986e+01 1.430493799999999993e+01 1.112163800000000080e+01 1.020448999999999939e+00 3.746567999999999898e+00 6.443100000000000493e-01 1.404313800000000079e+01 8.982098000000000582e+00 1.574033799999999950e+01 6.727187999999999946e+00 1.040213800000000077e+01 3.733528000000000180e+00 6.956798000000000037e+00 8.496997999999999607e+00 1.641783799999999971e+01 1.070563800000000043e+01 1.655063799999999929e+01 4.080917999999999601e+00 5.743108000000000324e+00 1.402743800000000007e+01 9.165077999999999392e+00 7.225787999999999656e+00 3.472318000000000016e+00 6.806738000000000177e+00 1.594393799999999928e+01 3.113717999999999986e+00 3.019617999999999913e+00 1.314583799999999947e+01 1.974248000000000003e+00 8.933808000000000860e+00 2.498807999999999918e+00 2.766728000000000076e+00 8.005428000000000210e+00 1.134317000000000020e+00 6.008590000000000320e-01 8.237807999999999353e+00 8.318227999999999511e+00 9.962177999999999756e+00 8.038107999999999365e+00 1.364943799999999996e+01 1.014039799999999936e+01 4.718918000000000390e+00 8.061047999999999547e+00 1.231053799999999931e+01 1.801698000000000022e+00 1.483323799999999970e+01 1.333703799999999973e+01 1.402973800000000004e+01 7.902828000000000408e+00 3.124697999999999976e+00 9.568948000000000675e+00 1.599693800000000010e+01 4.801797999999999789e+00 2.518187999999999871e+00 6.946107999999999727e+00 1.261063799999999979e+01 1.120313799999999915e+01 1.593743800000000022e+01 1.572643799999999992e+01 1.274543800000000005e+01 1.348143800000000070e+01 1.761887999999999899e+00 4.119297999999999682e+00 9.279448000000000363e+00 7.483488000000000362e+00 8.162859999999999561e-01 1.562453799999999937e+01 1.128373799999999960e+01 1.388463800000000070e+01 1.441263799999999939e+01 1.178133799999999987e+01 2.532588000000000061e+00 6.970328000000000301e+00 2.588957999999999871e+00 5.749098000000000042e+00 5.741608000000000267e+00 9.444888000000000616e+00 1.601993799999999979e+01 1.291903800000000047e+01 1.634983799999999832e+01 9.227138000000000062e+00 4.816968000000000139e+00 2.894087999999999994e+00 1.623323800000000006e+01 4.216097999999999679e+00 1.138213799999999942e+01 1.302143799999999985e+01 1.034393799999999963e+01 3.311577999999999911e+00 5.517398000000000025e+00 1.287204000000000015e+00 1.076200999999999963e+00 3.668448000000000153e+00 1.621058000000000110e+00 9.884677999999999187e+00 4.462877999999999901e+00 1.249973800000000068e+01 6.318807999999999758e+00 1.628813800000000001e+01 4.502688000000000024e+00 1.381093800000000016e+01 1.598343799999999959e+01 1.104737999999999998e+00 1.102316999999999991e+00 8.090927999999999898e+00 2.492767999999999873e+00 8.194777999999999452e+00 8.839297999999999433e+00 1.599193799999999932e+01 6.998607999999999940e+00 5.422068000000000332e+00 7.945958000000000077e+00 9.085447999999999524e+00 1.021121800000000057e+01 1.437133799999999972e+01 1.104823799999999956e+01 1.104773800000000072e+01 1.462403800000000054e+01 1.174519000000000091e+00 8.413230000000000430e-01 1.475353800000000071e+01 1.559473799999999954e+01 1.206293800000000083e+01 8.540518000000000498e+00 1.963767999999999958e+00 4.233228000000000435e+00 1.566923800000000000e+01 1.218763799999999975e+01 5.471648000000000067e+00 1.612163800000000080e+01 8.080158000000000840e+00 4.780488000000000071e+00 4.881167999999999729e+00 4.421768000000000143e+00 6.243097999999999814e+00 1.576933799999999941e+01 8.443370000000000042e-01 5.742998000000000047e+00 1.349753800000000048e+01 1.523593800000000087e+01 7.124208000000000318e+00 1.600783799999999957e+01 5.458018000000000036e+00 2.167489999999999972e-01 9.063807999999999865e+00 1.651588000000000056e+00 3.173897999999999886e+00 3.476497999999999866e+00 8.396838000000000690e+00 1.334613799999999983e+01 2.037707999999999853e+00 3.641627999999999865e+00 3.857347999999999999e+00 1.452893800000000013e+01 7.245817999999999870e+00