-7.779363177078828448e+04
-7.778587895626420504e+04
-7.780412002552014019e+04
-7.780191051303087443e+04
-7.779872899784856418e+04
-7.779874805903811648e+04
-7.780816573746995709e+04
-7.778499425110781158e+04
-7.781353050361551868e+04
-7.779782154313460342e+04
-7.777769915422894701e+04
-7.779025263845507288e+04
-7.779582565003824129e+04
-7.779017497318705136e+04
-7.778379717729910044e+04
-7.779410017722619523e+04
-7.779519612826326920e+04
-7.778051479665859370e+04
-7.778485788269735349e+04
-7.779903924133784312e+04
-7.780258528061748075e+04
-7.780388781593306339e+04
-7.781035991294676205e+04
-7.780031653279055899e+04
-7.780062435843473941e+04
-7.780961269785520562e+04
-7.778636994658167532e+04
-7.779946291201307031e+04
-7.780455002628864895e+04
-7.779829556495483848e+04
-7.777595854567112110e+04
-7.778756336984490918e+04
-7.779506104412328568e+04
-7.779476941179555433e+04
-7.779822022003158054e+04
-7.778871010356342595e+04
-7.780527258434666146e+04
-7.780262384590313013e+04
-7.779758672607100743e+04
-7.779890188293298706e+04
-7.779470190615442698e+04
-7.779736447366171342e+04
-7.778782905745014432e+04
-7.779054510540794581e+04
-7.780511526424209296e+04
-7.780114121409314976e+04
-7.779844676112548041e+04
-7.778756914821242390e+04
-7.778767079891754838e+04
-7.781602376991706842e+04
-7.777832820242436719e+04
-7.779972781723248772e+04
-7.780825566325502587e+04
-7.778984899895655690e+04
-7.777978671462547209e+04
-7.780416935628124338e+04
-7.780848455119979917e+04
-7.779431093326225528e+04
-7.780702615602653532e+04
-7.778876779747176624e+04
-7.780973364675590710e+04
-7.780651172321567719e+04
-7.780821825170038210e+04
-7.779212549816624960e+04
-7.778164138549631753e+04
-7.780292593309667427e+04
-7.779315695402919664e+04
-7.780640710078521806e+04
-7.778607752842776245e+04
-7.778696427192991541e+04
-7.779783421634424303e+04
-7.780764550215333293e+04
-7.779134698030591244e+04
-7.780389113910766901e+04
-7.778987057383687352e+04
-7.779565389169726404e+04
-7.780194774259148107e+04
-7.780296318428088853e+04
-7.778306077158606786e+04
-7.779248426485633536e+04
-7.780118049077286560e+04
-7.778428159575612517e+04
-7.780134894834252191e+04
-7.778988336648518452e+04
-7.779114783830654051e+04
-7.779691304530587513e+04
-7.778156873240527057e+04
-7.778989933042686607e+04
-7.779075537685811287e+04
-7.781360971677658381e+04
-7.780029081943437632e+04
-7.779160068188597506e+04
-7.780495645918211085e+04
-7.779602037974813720e+04
-7.779394679921156785e+04
-7.779164089222275652e+04
-7.780161686540314986e+04
-7.778887824331219599e+04
-7.778617393124199589e+04
-7.781152283814840484e+04
-7.778513771433317743e+04
-7.780767876282396901e+04
-7.780772057421589852e+04
-7.778052293943491532e+04
-7.778568228732804710e+04
-7.780452864239308110e+04
-7.779908608707140957e+04
-7.780859948366825120e+04
-7.779873995888748323e+04
-7.780160728888066660e+04
-7.779335509131760045e+04
-7.779002679087860452e+04
-7.779881998229039891e+04
-7.779856764939833374e+04
-7.780093775550024293e+04
-7.779482410744865774e+04
-7.780573404265822319e+04
-7.779349597555659420e+04
-7.779827926062760525e+04
-7.780473010809272819e+04
-7.779631181710146484e+04
-7.780155163777887356e+04
-7.779697667183147860e+04
-7.781145903169079975e+04
-7.779884622286146623e+04
-7.778910219168668846e+04
-7.779478544265541132e+04
-7.777488772858036100e+04
-7.778874514115137572e+04
-7.779059469005487335e+04
-7.780118723853363190e+04
-7.779661048236275383e+04
-7.779208309458753502e+04
-7.780215037770538765e+04
-7.777840993699795217e+04
-7.778083945402888639e+04
