-2.187368766377589147e+00 -3.479767301570210747e-01 4.393694792151000783e+00 4.155906296623599339e+00 -2.903097096960327139e+00 8.962285291761130646e-01 2.358529689075913593e-01 -1.282965156914089577e-01 -1.332499006072684899e+00 -2.734331928385724364e+00 4.207523253735661606e-01 -2.622175771233785091e-01 -2.961063136743690372e+00 -2.040194695494945698e+00 -2.809644688411551794e+00 4.677626879928281411e+00 1.509838290178290299e+00 -3.948294327174007301e-01 2.160103243539616802e+00 5.270253866296744860e+00 4.328349685684785286e-01 1.939434696937109848e-01 -1.494016748457174248e-01 3.838715444043980352e+00 -4.618070355597876819e+00 -3.022742878240193942e+00 1.057009907554341321e+00 2.892837366057450232e+00 -3.506846676523918571e+00 2.696938315137614728e-01 -8.985085836480134480e-01 3.806748915797322663e+00 2.766278402026066452e+00 4.076848467423472400e+00 -6.745543211999716071e+00 -1.924779921927031623e+00 1.471592099051423297e+00 8.080664229293018641e-01 3.066336450163924088e+00 -6.835951948374566767e-01 2.362568892476179183e+00 3.549048253081064641e-01 1.157070565994499978e+00 -2.189365999478369407e+00 3.676073101043783709e+00 1.469685883010075855e+00 1.466306938956206452e+00 -2.428241043291544887e+00 1.370949857028107566e+00 -9.809119325581510118e-01 1.035652266048724179e+00 -5.068619712191273941e+00 -2.364520359936905791e-01 2.496765061969147492e+00 2.005011716927643572e+00 -4.897427422031788713e-01 9.580301409725354711e-01 1.759067681498498459e+00 -1.881758163393638217e+00 -1.497074818809991381e+00 -5.961715094796053993e-01 6.727888473573068184e-01 1.025304603410463145e+00 -4.783083770129405998e+00 -2.721234213578829220e+00 -2.234340253913838836e+00 1.851357951322309292e+00 -5.551555715322612272e+00 1.882900247512287573e+00 1.966398886459670869e+00 8.627121398157185928e-01 1.628364613049197107e+00 3.241908872031042499e+00 1.298662771452587794e+00 -2.116256675043903357e+00 -9.238025844189434732e-02 -2.818638922233835942e-01 7.845243719972903040e-01 1.537917310123738002e+00 -1.799444803101583945e+00 -2.623620731329869282e-01 2.843778656802336879e+00 4.690414005447619772e+00 2.891463368414482815e+00 -1.418811974773047657e+00 3.466169764267446052e+00 6.631869075415874448e+00 -5.065793555362775313e-01 2.382116477206629668e+00 -4.785977804086973819e+00 4.746179694963671203e+00 1.095900417186686848e+00 -1.765598284067991575e+00 -2.071587867689243190e+00 -6.149515684309043273e+00 -1.587550918093237451e+00 1.963032283701995562e+00 6.693620807806845541e+00 -2.222717838222839859e+00 -4.822635053328822252e+00 -1.925879325729675573e+00 -8.071485390248493985e+00 1.556700248710815859e-01 -1.557925122358101655e+00 6.886314721260879956e-01 6.289715894400548235e-01 5.636252488442193176e+00 -1.065089857016896735e+00 -6.353290539083553234e+00 -3.298470575151627671e+00 -1.235476363379027775e+00 6.163459806346598846e+00 1.254040758179331139e+00 -3.354163759552536650e+00 4.085911606816174491e+00 -1.226927958881763647e+00 6.578836468786190828e-02 -1.824609734483148671e+00 -7.334056947190745746e-01 1.429440916120404026e+00 -2.237593728123066228e+00 1.086619762448559401e+00 -7.191730948829770931e-01 -2.379203417084096106e+00 -3.286357592936904215e+00 4.604595202815705335e+00 2.969109147641710855e+00 -7.178880574167436635e-01 3.332855483231697225e+00 -7.851825744609872704e-01 2.864697153851706091e+00 4.017564994271365375e-01 2.277269966946450008e+00 7.781701471192406516e-02 -1.727147433112568908e+00 3.210544496194532638e+00 4.214615385281995863e+00 1.401503821081191203e+00 2.663785479794278377e+00 4.284248577955063197e+00 -3.138840536864194064e+00 -2.800725016587108041e+00 -2.123272187709698056e+00 -2.887426221896916889e+00 3.441345761193249420e+00 5.363928418177017488e-01 -3.093485244908724674e+00 1.122916028776724140e+00 -8.898573350157963358e-01 4.966542794485368617e+00 -4.599216454557680578e+00 4.380373391350583789e-01 4.960007563929802465e+00 5.463495424769403641e+00 2.158569837487472665e+00 3.215131344613420872e+00 -7.172863163831358690e+00 -2.201340142110906672e+00 -7.939379013577764432e+00 2.727017653507891826e+00 1.762749501529803364e+00 -2.725775810578338287e+00 -3.989435580699791206e+00 3.802497853479054779e+00 -1.790318414565885696e+00 -4.465901659301257709e+00 1.641415019554014032e+00 3.839490374600849076e-01 5.776595651881279991e-01 5.042932332604149970e+00 -2.069403972483523813e+00 1.091006579024965006e+00 4.950677029786223038e+00 -2.148188236284677366e+00 -6.679726565174741726e-01 9.300652780168850997e-01 8.587269295863033669e-01 -1.162119184579325504e+00 -2.704368803887943762e-01 3.370896500309333299e-01 -2.126486066926968288e+00 -3.543957468400908695e-02 3.981011617605819009e+00 -2.171820275834772218e+00 2.458505501104736535e+00 -8.313107400906254441e-01 -3.166467042615849881e+00 5.055307053142327867e+00 3.795745621798738423e-01 1.167351894165716608e+00 -1.579673057355864163e+00 2.735395850961809927e+00 5.092260493492839490e-01 -5.184743081849013002e+00 -1.881497453511533080e-01 3.962105780277473954e+00 1.926876913838715843e+00 2.785620812707286231e-01 -1.674261379375191761e-01 1.901207531975208920e-01 -6.629757171104621705e+00 8.560279909527411135e+00 2.944230637175989873e+00 -4.173498814348600483e+00 -5.134143253231632897e+00 1.939429040509687452e+00 -7.914000166395497304e-01 -1.011434529150073702e+00 -2.844745905891566395e-01 2.567583533297542964e+00 2.502341785186954493e-01 -1.527573761250875073e+00 -1.607654375373107070e-01 -7.698233171264834418e-01 -7.172236843049495381e-01 3.661622471641587051e+00 -6.208650033465469065e+00 -2.190766222375750250e+00 -6.746991771640523661e-01 -4.577103937101511533e-01 -2.089589190850680289e+00 -5.162731351645096112e+00 -4.383535334279702766e+00 -2.428195277651490791e+00 6.542395706448417059e+00 -7.860531500633614888e-02 4.936991560748073549e-01 1.245661018063388914e+00 1.397120604049508774e+00 -6.504978953269943132e-01 4.747646252328095784e+00 2.596518730666471875e+00 1.772633851340102762e+00 5.921811570434425409e-01 -4.390344130234242748e-01 1.810082486200411678e-01 3.134425438150676424e+00 -3.055295618056082407e+00 -8.760577089878495149e-01 5.313699342666142189e-02 1.053136283211349999e+00 -8.731185778771051176e+00 5.891908609755591719e+00 -4.688787525453343541e+00 -2.559749895538199649e+00 -5.990165896289356695e+00 3.248229158344558276e-01 -1.966002936540103274e+00 2.223618752845025193e-01 6.732881556325019945e-01 -1.968215628103609394e+00 3.728327177571876927e+00 2.870934136415909776e+00 -4.195844787991113378e+00 2.201941266079705528e+00 -4.365979840443285021e+00 -1.594135513833580889e-02 -2.881623241582213613e+00 -1.456265751840104317e+00 2.300957542329419514e+00 5.508347294684279305e-01 -4.568796187880035831e+00 -1.018188457758616927e+01 3.415554509029823382e+00 -1.350374345168805501e-01 2.143692919145896880e+00 -9.831277094457059329e-01 1.268012133912648887e+00 -2.123894908946836857e+00 -1.356133102505479027e+00 1.074425019146548976e+00 -7.984648944901222567e-01 -1.593806412601732336e-01 -1.335116903527904686e+00 -1.183429003562189941e+00 -8.420070443463759657e-01 2.033336534355628389e-01 -2.217594143419498565e+00 2.351437043308904240e+00 7.705783987653057387e+00 1.715654086810935119e+00 -2.405967574764174000e+00 -2.996539735316282371e+00 4.589508482438825254e+00 -6.948412009945292844e-01 -2.724048029111134195e+00 3.471358250875807627e+00 -4.346486248883683956e+00 -9.555819363399875588e-01 6.179690667724826447e+00 -3.303477541861797206e+00 1.917015703958780737e+00 1.132535040718845698e+00 3.967443905102190915e-01 2.385870802353076137e-01 -4.666004978457957364e+00 -3.947446377281322416e+00 -5.050033205901955924e+00 9.240026162614263239e-01 -1.243481236623067421e+00 -3.999493222877485987e+00 -2.677600018221792944e+00 5.341249229537258891e+00 5.326339401072497814e+00 -3.841267007032155512e+00 1.744294635733224741e+00 -2.549612549155916952e+00 4.861678800722246674e-01 4.629848065932653967e+00 1.389499339428842628e+00 2.406550186788680712e+00 -4.550294528002053696e+00 3.019349021786756015e+00 -1.623857468834897455e+00 -8.124912918356395064e-01 -3.753005141974440573e+00 -5.597140349699024853e+00 4.493188265186894848e-01 5.375709213835844213e-01 -3.996099880644723434e+00 -7.872543695596083690e-01 2.302017351140106527e+00 -4.569287782845110057e-01 7.807165679006683456e-01 1.074232700614187325e-01 -2.244676089476580483e-01 -1.420232252276743656e+00 4.038055659719332446e+00 2.885734950097620377e+00 1.096885612577465707e+01 1.065281661328583374e+00 8.065638701176434111e-01 4.045595163252710957e-01 8.291864944831784934e-01 6.962347390231377053e-01 -4.275226576216342167e+00 -3.172681399470364205e+00 -3.587064587566312635e-01 1.710804985847917736e+00 3.515819827298537703e+00 3.055840177750656306e+00 -1.247460276204385599e+00 -2.952819665106560798e-01 2.491858368290555958e+00 1.073591467432757351e+00 -1.695503835449662322e+00 2.325019470363616225e+00 -8.017004223978000610e+00 -2.353667732596027129e+00 -2.494433071209095631e-02 3.684425073243289273e+00 1.033895174003058193e+00 2.848490460845192196e+00 -1.517345397809158891e+00 -2.480837590789029878e+00 7.989909422404051220e-02 5.604984786092538362e-01 -5.780354605013799940e-01 -5.094224302249760861e+00 -5.964363331271085311e-01 -1.080179662717824396e+00 -1.338459852134540773e+00 -2.255738518852762553e+00 -3.948170914212063565e-01 -2.301671794846665176e+00 -2.440977260964081186e+00 4.693940530835146063e+00 2.886535077467551780e+00 -7.265490248197139067e+00 -2.838739808410331578e-01 2.844191061783496899e+00 -1.171351502574025094e+00 2.780631843720733798e+00 -2.071621806253777454e+00 -6.999720948873170423e-01 -1.948123483678584567e+00 6.513319612614603127e-01 -2.178902122967612265e-01 9.259551121635023474e-01 1.439904278410486960e+00 3.280880114309326245e+00 1.343766609498097397e-01 4.393622801256532817e+00 -1.730926440851404235e+00 -1.218629979853108614e+00 1.284646658520565365e+00 5.157561376981026902e-01 -2.285722726398208504e+00 4.534861737111059554e+00 2.014955716336215730e+00 -2.754423558590074705e+00 1.611882811981685260e+00 -8.571693551624454122e-01 -2.490628352436522253e+00 -4.748760054309633105e+00 -1.532281451528332727e+00 6.679744048677683566e+00 9.900486055073445257e-01 1.599761602236165814e+00 2.708454801369613030e+00 3.699133841424217528e-01 -1.879661171481953552e+00 4.229778724539415613e+00 2.456375599069866578e-01 -1.165513555253437694e+00 -4.321630364127653223e+00 2.837202288592789667e+00 -4.072062101382775690e-01 -3.630897272103807527e+00 -1.814314522353713544e-01 -8.086634331327018435e-03 -2.559381713535068936e+00 1.081790716091857840e+00 -1.258506764739649952e+00 -8.009316110669615352e-01 -1.558232626321610359e-01 -1.793038641935383426e+00 -2.113956051745012332e-01 -1.811136124363001754e+00 1.213419895976407314e+00 -1.671560178170660604e+00 -1.990995603995621588e+00 -1.719334364180215680e+00 -4.886235923266240455e+00 -4.976654944054589080e+00 -2.431775281989192738e-01 -6.118094744198309537e-02 -1.431881407442830767e+00 2.679504691601116040e+00 2.292890448383733570e+00 3.115373047930023009e+00 -2.110496375045205042e+00 -1.667711236420057697e+00 3.146058138255170888e+00 1.762883713125916518e+00 4.897406853204797628e+00 -2.569435756168040541e+00 -1.283628501584534343e+00 4.604896021910440673e+00 -2.825242544139145107e+00 3.848166305825454270e+00 3.055277106111790264e+00 -7.758798082338451696e-01 5.521074256384670420e+00 -1.150143499284764115e+00 -2.300909205585991657e+00 1.098629386307655276e+00 -2.509476597049294710e+00 9.262060518527869268e-01 -1.995730033748167154e+00 3.481289908988185022e+00 -1.428773457684561210e+00 -1.914376723455896379e+00 -7.110910371156554888e+00 -8.784262094158091783e-01 2.611448099516873622e+00 -3.887517557182387673e+00 -4.073641787295648520e+00 6.694736666671081693e-01 2.459404358844222704e-01 7.386317194366935901e-01 2.681864450277605005e+00 -3.341448110706990882e+00 4.470111583965544533e+00 7.494930885290431721e-01 -2.688498925423400632e+00 4.565530372374614565e+00 -3.480898587054689908e-01 4.622324503240192728e-01 -3.305466547431781699e+00 -3.505015536701086565e-01 -7.826654642580210819e-01 -3.495732825080260397e+00 3.783494828443178637e+00 8.691990336278572205e-01 -2.389456977338875632e+00 -5.049919048912158814e+00 3.944556971309827631e+00 6.086603870075807388e-01 -2.120476884121685224e+00 -1.118397057486904655e+00 2.760439426264129636e+00 2.041774895628493680e-01 -1.219379713596913550e+00 3.231157031942417657e+00 -4.777148635101288399e+00 -1.220647267560205140e+00 1.071889396999291089e+00 -4.582513538600020975e-01 1.066602180021375412e+00 3.045875095294419133e+00 1.055352060098904809e+00 1.205645393594661829e+00 -2.093043725343739947e+00 3.196659509534574894e+00 -2.707079775285296197e+00 -2.189614368064280558e+00 8.045825778577807563e-01 5.571323900722535694e-01 -2.259607000989006576e+00 -1.571463524283268631e-01 5.943413980981229749e-02 -1.877316325205032888e+00 4.440052814422257299e+00 7.844611228542943682e-01 6.031618253323371981e-01 1.102887133494695249e+00 -3.366586302613467918e+00 3.284521310907324132e+00 2.932147993981077394e-01 -1.151081952016207000e+00 -6.824104304028021373e-01 -1.812476183441434907e+00 5.834527753100109404e-01 -5.027459432500523739e+00 -2.304649646774219462e+00 -7.304381272050158858e-01 -2.052957138421895422e+00 -3.818483431595420363e+00 2.936869053996078893e+00 -1.920650729908682575e+00 -2.118942963848866601e+00 2.559422851189050441e+00 6.378074947165792707e+00 1.424823728681704926e+00 -1.316352476885118694e+00 -5.231445631972360566e+00 -2.563615806571069911e+00 2.369844600803404422e+00 1.649679060018134358e+00 -1.863553723065669132e+00 8.407652014168226495e-01 2.068385815547492124e-01 -1.666598977100544499e+00 -2.627907789095370816e+00 -2.178887210568043908e+00 1.372498689700494712e+00 1.057099381951750239e+00 1.397064553995959857e+00 -4.537339252322068472e-01 -1.176303961892669836e+00 5.516250866455390395e-02 -2.766647612470546580e+00 -4.142297446465991406e+00 -5.403749153010009465e+00 -1.387981359996941499e+00 -1.528274129809902571e-01 -9.635436150473473127e-01 1.148511877083740140e+00 -4.861925626646133591e-01 -6.095710718225865188e-01 -6.975048640898029451e-01 4.422745174951075997e-01 1.074956723324253849e+00 4.214522825560539587e+00 -3.417986772821453911e+00 6.393448602679190351e+00 -3.743155244949350369e+00 1.686718375221332167e+00 -2.455800700355481148e+00 6.083811651811843468e-01 -5.457966524074349124e+00 -9.366653003774716435e-01 5.264321302372001021e+00 2.021743943463766069e+00 2.182099032902614866e+00 3.141408040693286718e+00 1.406341609189363684e+00 4.310269686760108132e-01 -6.355530998563497791e-01 8.694139778699082610e-01 3.480667187751046443e-01 -1.883497771936362142e-01 4.311479648007826349e+00 9.181132468733627094e-01 5.401373967713278545e-03 -6.857795014197161088e+00 2.718389544806039115e+00 -6.871068078254150002e-01 -8.666942647210853501e-01 1.125989011529109490e-01 -4.383854665318731025e-01 -9.211692603434806781e-01 1.999555835568405326e+00 8.000075565144120215e-01 -1.149429760988192717e+00 1.326314988237982107e+00 1.311063717245178228e+00 4.814903231263081729e+00 -1.323923862100332860e+00 3.628007351911638256e+00 -2.780094997336280294e+00 4.323359174036206731e+00 -3.474254855936748654e-01 -3.016907502022980303e+00 -1.430172137919917486e+00 -1.631776981446926289e+00 3.659658148663991639e+00 7.104780346492701959e+00 -6.130158875448930011e+00 -9.935705029087982254e-01 -9.812281782731305801e-01 -2.239111193334292427e+00 2.273384515527938632e+00 6.455850310003061754e-01 1.725109062357807366e+00 3.217360491238519526e-01 1.579151123370979404e+00 -2.764183981217755992e+00 2.015997527423285973e+00 -2.688576572745289717e+00 -1.353725521306237356e+00 -2.448725538091413689e+00 -7.552261348319787571e-01 -1.402671616233578167e+00 -1.322939643728836101e+00 1.055111919043790314e+00 -4.329128730007051118e+00 5.344591663923219826e+00 3.491346008503855014e+00 2.557813340477041564e+00 3.693734010118528310e+00 -4.526581755806020624e-01 -2.179807151355195316e-01 -8.948930980837529470e-01 1.427873571503725625e+00 -1.505208247222721951e+00 1.232801901649584142e+00 2.468086460716925501e+00 -7.352826001819604551e-01 -1.773796504285742204e+00 -1.156383052952341339e+00 -1.198516238159743841e+00 -4.157788858513908892e+00 -4.152053241107598325e+00 2.562742145644646974e-01 -6.308145563384062182e-01 8.922947410141741642e-01 2.483389153777205038e+00 2.047012747421632195e+00 1.866329486268041293e+00 1.846436859464824609e+00 -5.528552567657751382e+00 -5.563111796546566623e+00 -2.357717220409788206e-01 1.524633961653253600e+00 -3.125994790187932804e+00 1.582736784136103747e+00 -1.110989194446265316e+00 -3.199139081628283421e+00 -5.933016438937517290e-01 -2.190216006253753012e+00 -1.867720967413950994e+00 -2.299760950819245586e+00 -2.496988747962668731e-01 6.093900661450697420e-01 4.218260181424718702e+00 -4.713634668457904464e-01 -7.118053410549691762e-01 2.653086604435153539e+00 -3.240045336305700907e+00 -3.011223820904821658e+00 1.578856474924340336e+00 1.137899905018650903e+00 -6.019991723866975342e-01 -2.756068550528642191e+00 3.809328760922610080e+00 3.707324348331846764e+00 8.152247860985461614e+00 -3.163307670790104886e+00 2.358546658358181336e+00 1.117398955157189233e+00 -2.085292362892358753e+00 -3.070965978898817728e+00 2.654201434858040609e-01 2.450685233082936509e+00 -5.289320140475616272e-01 -2.442019586271826359e+00 7.151868562122122297e-01 3.661442494405419801e+00 -1.425211965291151239e+00 1.058537965711467876e+01 -2.226115294221000518e+00 -1.054159068133453836e+00 2.488010969201977396e+00 -6.099263983088478724e-01 9.075377844761813861e-01 5.300072494784915378e-01 5.607715812096206065e+00 8.711864965358170343e-01 3.187998490709537114e-01 2.789269208394732136e+00 -3.244098423664184772e+00 1.921247225891407950e+00 -2.346327232463781554e-01 3.017568789810725960e+00 1.025564284851218755e+00 -2.465769382356442385e+00 -2.531765492196908635e-02 6.044710311702844452e-01 -1.548930374315142799e+00 9.479570721745980144e-01 -9.938594949280151747e-01 1.963263683005639082e-01 -4.315693172216836793e+00 8.485062794547088005e-01 3.024189895218977853e+00 4.823184241009469131e-02 1.467071585099579594e-03 1.154476836910993953e-01 6.484461548346889259e-01 -7.891127630782028557e-02 5.554863696923363348e-01 -3.023990377597169044e+00 3.244418268923887183e+00 -6.057569428116649668e+00 2.525635981753729942e-01 3.983821833593401140e-01 3.356033465925976067e+00 1.170875334229194431e-01 -1.062390712695064021e+00 1.957856652610503456e+00 -6.869278590305973875e-01 -1.497853348911582838e+00 -5.920551729781255990e-01 7.022295236495277315e-01 3.356213443162143317e+00 2.422442176742239106e-01 1.290050603591652578e+00 -7.692191078336366727e-01 4.080060289758043801e+00 1.145064027459452571e+00 -2.238953327587140496e+00 2.642427324067986305e+00 1.480028917662264076e+00 1.052404032970487124e+00 -3.883733921457480087e-01 6.150840316767234306e-01 4.805840091870379638e+00 -4.688957218276015304e-01 8.661255366547971901e-01 -1.893074103562478516e+00 -1.498478127031420470e+00 1.310832317941535097e+00 4.375432759107457770e+00 -5.325632347644698505e+00 1.291680683130652207e+00 1.366552756038207139e+00 -7.884118802985006225e-01 4.052609133256482310e-01 2.276134053475897367e+00 3.536839625820834776e+00 1.745522080483884533e-02 -6.254563254853056975e+00 -1.861655734555118125e+00 1.095671588986417033e+00 -9.940610694325223706e-01 5.411340592831540341e+00 1.698302224361724067e+00 2.183972338820777681e-01 8.583458920663037395e-01 -8.259206789777569224e-02 -3.001531789626883939e-01 5.124949501787540163e-01 6.453685440962307895e-01 3.095072644131719120e+00 6.150110123409069374e-01 -2.695851252631165540e+00 2.057658143830581210e+00 -7.718195217859144530e-02 -1.507565949016511420e+00 4.027382495393945661e+00 -2.560690919373016516e+00 -1.744512151078649653e+00 4.942174905149687540e-03 6.119226029682789392e-03 4.000014642641695484e-01 1.926646028755747420e-01 -9.595964571478643457e-01 -1.282745584685965667e+00 -4.883229789201574689e-01 -1.161916067412794185e+00 -1.634284321457072142e+00 1.092897882666744369e+00 4.413353448547200131e+00 2.507318412877313385e+00 1.436668801924876560e+00 -3.002281523370688543e+00 2.668113160993085931e+00 -1.903141001712319036e-01 -2.965141420915237358e+00 6.742034684335804773e-01 -1.558768958485388323e+00 -2.237420949976345330e+00 -2.023281977501982354e+00