-7.842031757062925124e+01 -2.232716740653695453e+01 2.363180422448371232e+01 -2.232716740653695453e+01 -8.287703466743789704e+01 -3.200882998876999608e+01 2.363180422448371232e+01 -3.200882998876999608e+01 -4.071594599885541754e+01
-8.155422785113815110e+01 -7.640626865641480414e+00 -8.610807710879983645e+00 -7.640626865641480414e+00 -8.681977156030391996e+01 5.013437826921960827e+00 -8.610807710879983645e+00 5.013437826921960827e+00 -1.065885142798705090e+02
-1.286002193108559766e+02 -1.699285054819750584e+01 4.658410405607357418e+00 -1.699285054819750584e+01 -1.370560010190945945e+02 1.037842884777144192e+01 4.658410405607357418e+00 1.037842884777144192e+01 -1.428645224378794296e+02
-1.196895372129343968e+02 1.554061458424140518e+01 1.588161800012612446e+01 1.554061458424140518e+01 -1.213179438926395477e+02 -3.107524988122539256e+01 1.588161800012612446e+01 -3.107524988122539256e+01 -8.002263017388851551e+01
-1.046737459860603821e+02 -1.776438473099064197e+01 -1.448109029962347805e+00 -1.776438473099064197e+01 -1.868965738525595910e+01 1.575620204163015181e+01 -1.448109029962347805e+00 1.575620204163015181e+01 -1.004343686875416921e+02
-9.578188164675697180e+01 3.406510568372519288e+01 -3.936620667378597460e+01 3.406510568372519288e+01 -1.137809503345227569e+02 8.863773311687461742e+00 -3.936620667378597460e+01 8.863773311687461742e+00 -5.515885991586288384e+01
-9.401057174663287697e+01 -6.433157079635515174e+01 4.842748766357031442e+00 -6.433157079635515174e+01 -9.307405953816810040e+01 3.326251846121859046e+01 4.842748766357031442e+00 3.326251846121859046e+01 -1.311391452999599778e+02
-6.125188609187015487e+01 -1.939058296395090508e+01 -1.798685839578791601e+01 -1.939058296395090508e+01 -1.117887997455825371e+02 -1.315264045418438954e+01 -1.798685839578791601e+01 -1.315264045418438954e+01 -1.363918479118341622e+02
-1.015769007250459310e+02 6.994099737323643318e+00 -1.037478851664318569e+01 6.994099737323643318e+00 -7.860806445364165995e+01 1.302267108737532730e+01 -1.037478851664318569e+01 1.302267108737532730e+01 -1.360787820566776247e+02
-8.640569161148407318e+01 4.736615141858730560e+00 2.183468539368811534e+01 4.736615141858730560e+00 -9.939647434098515077e+01 -4.588084801911239685e-01 2.183468539368811534e+01 -4.588084801911239685e-01 -3.188373825151747809e+01
-9.787526920006305886e+01 1.906738288758732836e+01 5.444434333607427590e+01 1.906738288758732836e+01 -5.376900404463126648e+01 -2.207334660126223813e+00 5.444434333607427590e+01 -2.207334660126223813e+00 -1.330084105601565057e+02
-5.868434777435413707e+01 -6.863351350685104046e-01 -2.577108466743501580e+00 -6.863351350685104046e-01 -8.361843478463819679e+01 7.793228201828847013e+00 -2.577108466743501580e+00 7.793228201828847013e+00 -8.786621299696233223e+01
-7.837082016437483389e+01 1.449311459327502938e+01 1.217232486730626917e+01 1.449311459327502938e+01 -1.102953612449183680e+02 1.783461123764347889e+01 1.217232486730626917e+01 1.783461123764347889e+01 -1.993100014072163617e+01
-1.033889980464611540e+02 -1.017503109116470306e+01 -1.027386078885407983e+01 -1.017503109116470306e+01 -1.088091733590655110e+02 -3.671225529619936623e+01 -1.027386078885407983e+01 -3.671225529619936623e+01 -8.456411766745125647e+01
-1.090248179229446492e+02 -1.510623414324305358e+01 5.288389693124713631e+01 -1.510623414324305358e+01 -9.257630685617115773e+01 -8.274764878054766015e+00 5.288389693124713631e+01 -8.274764878054766015e+00 -4.472811906603405419e+01
-4.148209094471008029e+01 -7.407606930201267481e+00 1.153225252485914609e+01 -7.407606930201267481e+00 -3.853100505811369203e+01 -2.412182283185954290e+01 1.153225252485914609e+01 -2.412182283185954290e+01 -4.265602845961068823e+01
-6.926973246354175728e+01 -2.480531017865625287e+01 9.988174419262481341e-02 -2.480531017865625287e+01 -5.854977493590749305e+01 -2.718291276366729736e+00 9.988174419262481341e-02 -2.718291276366729736e+00 -5.892311531074913233e+01
-7.261226079174538484e+01 -2.229255883648198733e+01 3.027514590556948804e+01 -2.229255883648198733e+01 -1.969742780759506928e+01 2.308877947621554938e+01 3.027514590556948804e+01 2.308877947621554938e+01 -6.126785589761038864e+01
-7.015671224794996874e+01 -1.702959373296206280e+01 2.425774993397903145e+01 -1.702959373296206280e+01 -2.855623467839364338e+01 9.620836796964931992e+00 2.425774993397903145e+01 9.620836796964931992e+00 -3.963192209851489167e+01
-9.970500450310788665e+01 -7.525975554264205059e+00 1.943887335824143747e+01 -7.525975554264205059e+00 -6.511729886037657877e+01 -1.261054804761283421e+01 1.943887335824143747e+01 -1.261054804761283421e+01 -8.361933929206018945e+01
-9.495498485028333846e+01 2.686251508465839777e+01 -5.064995273739697268e+01 2.686251508465839777e+01 3.313662864173142708e+01 2.050564761341158260e+01 -5.064995273739697268e+01 2.050564761341158260e+01 -6.865178273521971164e+01
-8.421452137281802663e+01 -3.138202154585365733e+01 -2.611617069545581149e+00 -3.138202154585365733e+01 -1.027211986351783821e+02 -2.131478030073597818e+00 -2.611617069545581149e+00 -2.131478030073597818e+00 -1.270093878025009815e+02
-4.911849770485805777e+01 -1.492327931696406296e+01 -1.232421473524290434e+01 -1.492327931696406296e+01 -5.849821947417375156e+00 1.677622368074581871e+01 -1.232421473524290434e+01 1.677622368074581871e+01 -2.052658421814123457e+01
-1.092304035142837364e+02 1.508631819180729572e+01 -1.638643260219676634e+01 1.508631819180729572e+01 -7.822914283503479282e+01 1.095297824821767740e+01 -1.638643260219676634e+01 1.095297824821767740e+01 -7.008828921389020650e+01
-9.412653917677009474e+01 -1.859437988763468397e+01 -2.338175596207040385e+01 -1.859437988763468397e+01 -5.498946701676501903e+01 7.729941620332026808e+00 -2.338175596207040385e+01 7.729941620332026808e+00 -6.382598921064064257e+01
-9.388587069397823370e+01 1.772856833522557451e+01 9.188710826253728925e+00 1.772856833522557451e+01 -4.531441743562098878e+01 1.426521638715891882e+01 9.188710826253728925e+00 1.426521638715891882e+01 -6.472361871670109679e+01
-7.501703283135805123e+01 -7.183685023075168097e+00 2.422637835159979147e+01 -7.183685023075168097e+00 -1.351396674629916390e+02 -2.415924221825638085e+01 2.422637835159979147e+01 -2.415924221825638085e+01 -8.093024996373085855e+01
-1.038426689266501626e+02 -1.959322730337181895e+01 -6.886845167481340901e+00 -1.959322730337181895e+01 -9.958870393820889433e+01 5.907787726802008876e+01 -6.886845167481340901e+00 5.907787726802008876e+01 -9.964231846720778663e+01
-6.787741682858332126e+01 -3.404511459361130754e+00 1.942821928526540631e+01 -3.404511459361130754e+00 -5.531100331925043889e+01 -1.272347466043119546e+01 1.942821928526540631e+01 -1.272347466043119546e+01 -9.395549464229348757e+01
-2.228945029329018013e+01 -2.375303278969239429e+01 1.617841541958093288e+01 -2.375303278969239429e+01 7.938633701884472593e+00 -4.257847695518102604e+00 1.617841541958093288e+01 -4.257847695518102604e+00 -3.795879995807077023e+01
-8.038264949884002419e+01 -3.166624085078852602e+01 -3.410661333934033035e+00 -3.166624085078852602e+01 -9.315890064296816320e+01 -1.084467436385291705e+01 -3.410661333934033035e+00 -1.084467436385291705e+01 -1.217381120653307534e+02
-1.630194222671025557e+02 3.446865850800815423e+01 -3.314818617769006437e+01 3.446865850800815423e+01 -1.500689169591432233e+02 -3.148567498128978315e+01 -3.314818617769006437e+01 -3.148567498128978315e+01 -9.839132380349404627e+01
-9.466846214345325450e+01 4.001166764484485050e+00 -7.382836801379447422e+00 4.001166764484485050e+00 -1.397607575023566540e+02 3.742292100994754378e+01 -7.382836801379447422e+00 3.742292100994754378e+01 -9.460457748715779758e+01
-7.613856859184812720e+01 7.172231417405291687e+00 9.360821349304060845e+00 7.172231417405291687e+00 -1.154971929138312845e+02 -2.015533243271630326e+01 9.360821349304060845e+00 -2.015533243271630326e+01 -9.713039136840666288e+01
-4.594377165550739761e+01 -5.073139989901501723e-01 7.081965717884994405e+00 -5.073139989901501723e-01 -5.560219111916383383e+01 9.592873953559159617e+00 7.081965717884994405e+00 9.592873953559159617e+00 -7.024475440513886326e+01
-7.159366013819037278e+01 -1.052291912751746272e+00 1.009847366349337783e+01 -1.052291912751746272e+00 -8.065328802274292741e+01 6.959947346253915201e-01 1.009847366349337783e+01 6.959947346253915201e-01 -6.762878909155524809e+01
-3.587452838799919874e+01 5.088292686073483395e+01 -8.066872226364122156e+00 5.088292686073483395e+01 -5.714653513337013635e+01 5.115411404281885455e-01 -8.066872226364122156e+00 5.115411404281885455e-01 -4.424306019136543000e+01
-1.394528260037377265e+02 1.171711812967899391e+01 1.604765539095258120e+01 1.171711812967899391e+01 -9.557897562264565750e+01 2.847165554139751720e+01 1.604765539095258120e+01 2.847165554139751720e+01 -1.328330784019162536e+02
-7.274067651251780831e+01 4.636547035612482404e+01 -1.947189720909879895e+01 4.636547035612482404e+01 -3.461747917045188672e+01 -9.297948711296809776e+00 -1.947189720909879895e+01 -9.297948711296809776e+00 -6.721757701892038028e+01
-7.731751728431738968e+01 1.604750086722008717e+01 -1.857955900982849684e+01 1.604750086722008717e+01 -9.365876625453503834e+01 -6.907762948776420053e+00 -1.857955900982849684e+01 -6.907762948776420053e+00 -1.069545723953267355e+02
-5.242604918710090800e+01 1.487914454596705482e+01 -2.131063487377820920e+00 1.487914454596705482e+01 -1.091389646762031731e+02 4.794912710973171954e+01 -2.131063487377820920e+00 4.794912710973171954e+01 -8.368946154476414279e+01
-6.883205202236939613e+01 -2.685375673828808019e+01 -1.285021705185053875e+01 -2.685375673828808019e+01 -3.262909365838332576e+01 6.083704046399820875e+00 -1.285021705185053875e+01 6.083704046399820875e+00 -1.230955540837096578e+02
1.415753744633972389e+01 -3.812569483207838772e+01 2.658344556440760797e+01 -3.812569483207838772e+01 -7.252267604364998022e+01 9.089400365938184123e+00 2.658344556440760797e+01 9.089400365938184123e+00 -7.280913849569387253e+01
-1.286819590922379177e+02 1.980415383800945506e+01 5.851415638290942134e+00 1.980415383800945506e+01 -7.280808850300839197e+01 1.689770271332887219e+01 5.851415638290942134e+00 1.689770271332887219e+01 -1.003547706608689367e+02
-7.975526327579329688e+01 -2.656406404117236164e+01 4.423840841375920596e-01 -2.656406404117236164e+01 -7.098869668062056348e+01 -4.650732369254722443e+00 4.423840841375920596e-01 -4.650732369254722443e+00 -1.118374445437685694e+02
-8.950902366539031618e+01 8.802967992014348653e+00 -7.416080702304658878e+00 8.802967992014348653e+00 -1.119329759507744058e+02 3.999892043556264554e+01 -7.416080702304658878e+00 3.999892043556264554e+01 -6.936388424250095852e+01
-5.075551476579383348e+01 2.598505717034629470e+01 3.747808637400877529e+01 2.598505717034629470e+01 -5.932601362162691316e+01 -6.098698026308626119e+00 3.747808637400877529e+01 -6.098698026308626119e+00 -1.564287259493575988e+01
-1.248906057818540773e+02 4.307733734039926787e+01 2.260639995808341496e+01 4.307733734039926787e+01 -6.287072363045155043e+01 -4.853103188927863521e+00 2.260639995808341496e+01 -4.853103188927863521e+00 -9.145374729107010126e+01
-8.892729279279686239e+01 3.674734597387183044e+01 -2.405003790991062651e+00 3.674734597387183044e+01 -4.456626886790291309e+01 2.271152958744288242e+01 -2.405003790991062651e+00 2.271152958744288242e+01 -6.968078928835973329e+01
1.579671655341802960e+01 2.789267852876205822e+01 -9.615957533723756612e+00 2.789267852876205822e+01 -5.945648977544840363e+01 -2.284456065114130130e+00 -9.615957533723756612e+00 -2.284456065114130130e+00 -7.350237166629790408e+01
-3.706366095721769227e+01 -7.133469898898638084e-02 -4.537421447956825338e-01 -7.133469898898638084e-02 -4.202682847790208598e+01 -1.215110159587346672e+01 -4.537421447956825338e-01 -1.215110159587346672e+01 -8.357129033224393311e+01
-5.597923296484811573e+01 -3.680865689531263740e+01 -2.692710940399155461e+01 -3.680865689531263740e+01 -1.040510832244075203e+02 -2.962303966122161825e+01 -2.692710940399155461e+01 -2.962303966122161825e+01 -6.118259530244997535e+01
-9.582052083170682977e+01 -3.800364676553911636e+01 1.043878436460659564e+01 -3.800364676553911636e+01 -1.693036756124236675e+01 -3.273585832909439830e+01 1.043878436460659564e+01 -3.273585832909439830e+01 -7.803803388847909162e+01
-1.005745663589543142e+02 -2.896873434124362490e+01 -1.952144327543771496e+01 -2.896873434124362490e+01 -1.459234151849607031e+02 2.074248560827200194e+01 -1.952144327543771496e+01 2.074248560827200194e+01 -9.751394576997704178e+01
-6.583770887546107531e+01 -1.941068759266552135e+01 3.024076674765235850e+01 -1.941068759266552135e+01 -9.303198181627593044e+01 -1.297214761779728853e+01 3.024076674765235850e+01 -1.297214761779728853e+01 -9.679990188595803602e+01
-3.357527144130855845e+01 2.218661412784127762e+01 2.972538054499347737e+01 2.218661412784127762e+01 -8.959538150311489346e+01 1.374898370457448316e+01 2.972538054499347737e+01 1.374898370457448316e+01 -8.092630768379009965e+01
-8.086269345893127536e+01 1.902412308930566809e+01 1.574677642028844637e+01 1.902412308930566809e+01 -1.004602768270104463e+02 1.432798825652064512e+00 1.574677642028844637e+01 1.432798825652064512e+00 -1.473357056708208859e+02
-1.038921205426536858e+02 1.021161567992193042e+01 1.616108818324778262e+00 1.021161567992193042e+01 -3.253733664542947679e+01 9.612177758413359641e+00 1.616108818324778262e+00 9.612177758413359641e+00 -4.957802492341554768e+01
-1.333518407005215920e+02 1.178671617219777801e+01 1.842728272075223117e+01 1.178671617219777801e+01 -8.292608783981695808e+01 -1.891991842435984283e+00 1.842728272075223117e+01 -1.891991842435984283e+00 -6.422331313960786758e+01
-1.842281433006332492e+01 -4.657556719858458649e+01 -1.756729044207013501e+01 -4.657556719858458649e+01 -6.489267169466420171e+01 -2.704190736537475459e+01 -1.756729044207013501e+01 -2.704190736537475459e+01 -4.157680645113558171e+01
-6.395003758899208179e+01 -7.370020860919721528e+00 1.750007933922099213e+01 -7.370020860919721528e+00 -1.231531827963978145e+02 -3.732664557975721920e+01 1.750007933922099213e+01 -3.732664557975721920e+01 -1.194321460816660192e+02
-6.806439205528926095e+01 5.695324601171078527e+00 -2.065125928364630425e+01 5.695324601171078527e+00 -6.079884780549173229e+01 -2.105987780107660079e+00 -2.065125928364630425e+01 -2.105987780107660079e+00 -9.865686580556537422e+01
-4.088993469072530473e+01 1.812670516880708071e-01 5.287164154957568485e+01 1.812670516880708071e-01 -4.611916904826271946e+01 5.465769953670655212e+00 5.287164154957568485e+01 5.465769953670655212e+00 -8.204962316834665614e+01
-1.459499014991474439e+02 -2.906430578489403516e+01 -5.783334285537637065e+00 -2.906430578489403516e+01 -1.031482862717505355e+02 -2.076711509781446452e+01 -5.783334285537637065e+00 -2.076711509781446452e+01 -1.188670186717231729e+02
-8.183000291224993816e+01 6.909398448501028689e+00 3.647681145486396304e+01 6.909398448501028689e+00 -4.034850129949840891e+01 -3.810416455093893262e+01 3.647681145486396304e+01 -3.810416455093893262e+01 -4.828116319243326870e+01
-1.089150917756663972e+02 5.872312646382432000e+00 9.019697796605608886e+00 5.872312646382432000e+00 -6.051793759694258057e+01 -1.927740951203798048e+01 9.019697796605608886e+00 -1.927740951203798048e+01 -1.190433536988316945e+02
-1.043347049416261711e+02 -1.656603202805113995e+01 -6.789630872222373270e+00 -1.656603202805113995e+01 -1.621029244432176313e+02 1.564149862346546804e+01 -6.789630872222373270e+00 1.564149862346546804e+01 -1.434151998549014593e+02
-8.731925743292256925e+01 -3.084599450271504839e+00 5.362278930535022248e+00 -3.084599450271504839e+00 -4.901824642033176360e+01 -1.724342817162463604e+01 5.362278930535022248e+00 -1.724342817162463604e+01 4.232323788042471335e+00
-6.676502545232868613e+01 -1.680553008690374739e+01 2.622411079193675576e+01 -1.680553008690374739e+01 -8.677924823492143958e+01 -7.313346900650506299e+00 2.622411079193675576e+01 -7.313346900650506299e+00 -3.117150334105200216e+01
-3.918776728521067554e+01 2.181698915676733463e+01 1.326323733079369127e+01 2.181698915676733463e+01 -5.596930138507619290e+01 6.285591959907611326e+00 1.326323733079369127e+01 6.285591959907611326e+00 -5.930361089326598290e+01
-1.103805454239439285e+02 4.422986233635064934e+01 3.523628479366596622e+01 4.422986233635064934e+01 -1.302358976168524691e+02 -1.662669791439137512e+01 3.523628479366596622e+01 -1.662669791439137512e+01 -2.941792034103507447e+01
-1.449948380981430489e+02 -1.109566972070640922e+01 -2.112785481969618739e-01 -1.109566972070640922e+01 -4.424407845668740435e+01 1.053886897865256067e+01 -2.112785481969618739e-01 1.053886897865256067e+01 -1.013539873447687398e+02
-4.836653976182923742e+01 1.244038980663558114e+01 1.018539106474386724e+00 1.244038980663558114e+01 -5.853152106211326355e+01 1.085559877640270621e+01 1.018539106474386724e+00 1.085559877640270621e+01 -1.817389409454732174e+01
-5.975381509888556764e+01 -9.549569658624381674e+00 -9.021405246811482925e+00 -9.549569658624381674e+00 -8.899840130991333353e+01 5.482316260171626432e+00 -9.021405246811482925e+00 5.482316260171626432e+00 -6.347047356753040503e+01
-1.190062749122624552e+02 1.364863695127279541e+01 -5.700681075132943221e+01 1.364863695127279541e+01 -9.522678759743092769e+01 4.185805367008494038e+00 -5.700681075132943221e+01 4.185805367008494038e+00 -1.590501098408366261e+02
-3.523754991887777521e+01 1.641530272431963411e+01 -2.584291549136643340e+01 1.641530272431963411e+01 -6.414751952058232121e+01 3.276751379030859113e+01 -2.584291549136643340e+01 3.276751379030859113e+01 -4.232140263336648189e+01
-1.092365309719004784e+02 5.644118361254711891e-01 1.737569398941326426e+01 5.644118361254711891e-01 -9.677971686886506575e+01 -1.936792509412986751e+00 1.737569398941326426e+01 -1.936792509412986751e+00 -1.137806995802377799e+02
-1.130924571644285379e+02 -3.415108942091310240e+01 1.203081857764773527e-01 -3.415108942091310240e+01 -6.184107360425988986e+01 3.208241231616294442e+01 1.203081857764773527e-01 3.208241231616294442e+01 -5.565967803915808787e+01
-5.346389686203894342e+01 3.053870806064128374e+01 -1.122528295637408924e+01 3.053870806064128374e+01 -1.160600688591008236e+02 1.518983383903695916e+01 -1.122528295637408924e+01 1.518983383903695916e+01 -1.104657888279023865e+02
-1.367290214314107466e+01 -1.330780555956038747e+01 1.851880366365792696e+01 -1.330780555956038747e+01 -1.862861348014931195e+01 3.742435193214209477e+01 1.851880366365792696e+01 3.742435193214209477e+01 -8.804588545507499475e+01
-3.581905921049003894e+01 7.852088584507446178e+00 2.534272510817161717e+01 7.852088584507446178e+00 -5.359378506674038789e+01 -3.530181697649887695e+01 2.534272510817161717e+01 -3.530181697649887695e+01 -2.588528477041645459e+01
-7.801947379714576414e+01 3.104986109930063165e+01 1.882539761660625288e+01 3.104986109930063165e+01 1.136684053498448499e+01 -4.844902651268154337e+00 1.882539761660625288e+01 -4.844902651268154337e+00 -6.482289968757119425e+01
-5.299077220563631130e+01 3.251961142193933796e+01 -2.830525744308708624e+01 3.251961142193933796e+01 -6.861105867746293541e+01 2.829009138193923789e+01 -2.830525744308708624e+01 2.829009138193923789e+01 -6.170241145598880905e+01
-6.325804049988035160e+01 1.915818704021297592e+01 -1.117856035934331693e+01 1.915818704021297592e+01 1.305892783384943456e+01 -9.341305622227340066e+00 -1.117856035934331693e+01 -9.341305622227340066e+00 -2.284471223120401628e+00
-5.683953735656475459e+01 4.966124657136979259e+00 1.274632654405636423e+01 4.966124657136979259e+00 -7.988624178599773984e+01 -4.316437534359461381e+01 1.274632654405636423e+01 -4.316437534359461381e+01 -5.683438520681652761e+01
-1.168061744560868931e+02 -3.291286461029871191e+01 2.866031582774756359e+01 -3.291286461029871191e+01 -4.140699999511507201e+01 -3.055053246217314111e+01 2.866031582774756359e+01 -3.055053246217314111e+01 -1.087991400695971720e+02
-8.965670574205410048e+01 1.921220548290297359e+01 -8.377036749742636790e-01 1.921220548290297359e+01 -1.258838407203456740e+02 -1.661671326851469388e+01 -8.377036749742636790e-01 -1.661671326851469388e+01 -5.675000408448529754e+01
-1.002615145822437057e+02 1.682808232332977738e+01 4.319854295753945195e+00 1.682808232332977738e+01 -4.998504008110916885e+01 1.656150600783356097e+01 4.319854295753945195e+00 1.656150600783356097e+01 -8.791932284087276628e+01
-4.826965142074337223e+01 -5.062093295229610490e+00 -4.012600642328116862e+00 -5.062093295229610490e+00 -6.629425591753420122e+01 2.251162562427674985e+01 -4.012600642328116862e+00 2.251162562427674985e+01 -9.301966509304736519e+01
-7.880745448039823486e+01 1.114234443601178626e+01 -1.013036176133113742e+01 1.114234443601178626e+01 -5.716059416135942683e+01 -3.502471079149860600e+01 -1.013036176133113742e+01 -3.502471079149860600e+01 -3.250849876704207020e+01
-3.621846040804198452e+01 1.750189633720433235e+01 2.345836812672641969e+01 1.750189633720433235e+01 -9.238137240976477926e+01 1.858226397017844178e+01 2.345836812672641969e+01 1.858226397017844178e+01 -9.621928025677594576e+01
-1.107513626224781831e+02 -5.940503663806693702e+00 3.737260892523910627e+01 -5.940503663806693702e+00 -8.138944103562222665e+01 -8.483470732498906486e+00 3.737260892523910627e+01 -8.483470732498906486e+00 -1.189217104221749679e+02
-6.486767581499056234e+01 6.979636788561872862e+00 2.269995629258193404e+01 6.979636788561872862e+00 -5.537057041124224810e+01 -1.012597298797743761e+01 2.269995629258193404e+01 -1.012597298797743761e+01 -8.608223824579309280e+01
-8.647424740027020107e+01 1.684190011633403472e+01 -2.653012066771375643e+01 1.684190011633403472e+01 -1.188744551500227686e+02 -1.190059714280220149e+01 -2.653012066771375643e+01 -1.190059714280220149e+01 1.104016199689656830e+01
-9.798988283637599750e+01 3.461432408177746822e+01 -1.740175149347565009e+00 3.461432408177746822e+01 -7.318077712987812333e+01 -3.386367753576878670e+01 -1.740175149347565009e+00 -3.386367753576878670e+01 -7.091343584071101702e+01
-1.159310487672349694e+02 -4.646940897386573965e+01 -4.268897536950240656e+00 -4.646940897386573965e+01 -6.261664808892582812e+01 -3.138996226415201463e+01 -4.268897536950240656e+00 -3.138996226415201463e+01 -5.046382885289395404e+01
-7.240416567022943184e+01 1.612872370289045776e+01 -1.568606728558883212e+01 1.612872370289045776e+01 -4.662088448838943577e+01 3.355218005517131985e+01 -1.568606728558883212e+01 3.355218005517131985e+01 -4.122094160380390093e+01
-8.224626153572366150e+01 1.148946826217762940e+01 2.110877670678403106e+01 1.148946826217762940e+01 -7.115072775401183947e+01 3.869165995650676848e+01 2.110877670678403106e+01 3.869165995650676848e+01 -4.829124422415263496e+01
-3.026741457929718848e+01 9.718195358971063458e-01 -1.471761497466580160e+01 9.718195358971063458e-01 -3.663144565388459029e+01 2.384378778291336687e+01 -1.471761497466580160e+01 2.384378778291336687e+01 -7.162161140770433576e+01
-7.821145285047293783e+01 2.134889357893520412e+01 -5.329862374577621686e+00 2.134889357893520412e+01 -1.259583252738024726e+02 -2.454233044705637212e+01 -5.329862374577621686e+00 -2.454233044705637212e+01 -1.243745555362658166e+02
-8.829935689637004259e+01 -3.159805167298583228e+01 -1.999776192884931092e+01 -3.159805167298583228e+01 -5.640425506857705784e+01 1.390936828163418149e+01 -1.999776192884931092e+01 1.390936828163418149e+01 -1.995548057769279993e+01
-7.784653614662032339e+01 -2.851274920799340862e+01 9.563349982966878216e+00 -2.851274920799340862e+01 -6.408940461400366928e+01 -2.437773608764771893e+01 9.563349982966878216e+00 -2.437773608764771893e+01 -1.714529406611583440e+01
-8.010245958429156587e+01 2.562948439947705381e+01 -1.214058045806494412e+01 2.562948439947705381e+01 -5.832958416053073591e+01 -4.167544380817187921e+00 -1.214058045806494412e+01 -4.167544380817187921e+00 -1.034403825801181256e+02
-7.478879962118526237e+01 1.903771412385730244e+01 2.043782401828127604e+01 1.903771412385730244e+01 -3.611867397701526983e+01 -1.140716296426617404e+01 2.043782401828127604e+01 -1.140716296426617404e+01 -2.796233251939997899e+01
-1.248789740493637765e+02 3.127652217842001647e+01 -2.124554172752762682e+01 3.127652217842001647e+01 -1.106390200762166671e+02 -2.559676098215739160e+00 -2.124554172752762682e+01 -2.559676098215739160e+00 -5.027620837574377077e+01
-3.751956655680809405e+01 -1.386718920652413622e+01 -1.359906469139654206e+01 -1.386718920652413622e+01 -7.112004996883456442e+01 -4.374739924189597673e+01 -1.359906469139654206e+01 -4.374739924189597673e+01 -4.925756589320963030e+01
-9.547994907329562864e+01 -8.220878769221490856e+00 2.186999541031658723e+01 -8.220878769221490856e+00 -1.108420573279761356e+02 -7.315561087083628511e-01 2.186999541031658723e+01 -7.315561087083628511e-01 -9.863679813731650370e+01
-3.877940675013187644e+01 7.812254941252605001e+00 1.044907070357825951e+01 7.812254941252605001e+00 -3.487311405506935102e+01 -3.241553938952847602e+01 1.044907070357825951e+01 -3.241553938952847602e+01 2.391121078156114077e+00
-7.935945678159285421e+01 1.341083387294272455e+01 -1.378448317112824562e+01 1.341083387294272455e+01 -8.396288856836115144e+01 1.190991489612010490e+01 -1.378448317112824562e+01 1.190991489612010490e+01 -6.644271040171722120e+01
-1.230550794381463362e+02 -2.160853606196681653e+01 -1.141012511525352480e+01 -2.160853606196681653e+01 -9.076748014733167835e+00 -2.005818870220132055e+01 -1.141012511525352480e+01 -2.005818870220132055e+01 -7.188602360012315273e+01
-9.764571155940623726e+01 1.419696156735845172e+01 1.440925979249413835e+01 1.419696156735845172e+01 -1.218286274071948867e+02 3.488701692412274902e+00 1.440925979249413835e+01 3.488701692412274902e+00 -1.371450145713585869e+02
-6.582875469117126954e+01 9.256968308696475134e+00 -1.429395536323239746e+01 9.256968308696475134e+00 -1.510982563277023871e+02 -2.565520473996562600e+01 -1.429395536323239746e+01 -2.565520473996562600e+01 -8.744964117058056274e+01
-5.700241467632919523e+01 2.251042557149788692e+01 3.538259976249275685e+00 2.251042557149788692e+01 -2.671820996309037710e+01 -2.899300015018544485e+01 3.538259976249275685e+00 -2.899300015018544485e+01 -3.862476743172749849e+01
-3.721035294777892233e+01 -3.208196843901570361e+01 1.023625546183570201e+01 -3.208196843901570361e+01 -4.881078193265926046e+01 -1.414650694447786172e+01 1.023625546183570201e+01 -1.414650694447786172e+01 -1.177093717601592289e+02
-5.876936425668760222e+01 4.242534326580159387e+00 -2.159763786699375032e+01 4.242534326580159387e+00 -7.275114953737492840e+01 8.686145860101888161e+00 -2.159763786699375032e+01 8.686145860101888161e+00 -2.302291969681979111e+01
-2.758625741128122399e+01 -4.114246947372861563e+00 -1.051320787780042565e+01 -4.114246947372861563e+00 -1.197071965280440935e+02 -1.762945607834628703e+01 -1.051320787780042565e+01 -1.762945607834628703e+01 -6.147204550434452841e+01
-5.553996148457171955e+01 -4.268505064666123872e+01 -2.954805797091394837e+01 -4.268505064666123872e+01 1.693701577622528376e+01 1.350946672916569291e+01 -2.954805797091394837e+01 1.350946672916569291e+01 -5.033798313709363725e+01
-1.523705826336770883e+02 2.014551020263213488e+01 2.034829534905734150e+01 2.014551020263213488e+01 -1.042558174237744595e+02 1.324427026842817945e+01 2.034829534905734150e+01 1.324427026842817945e+01 -4.380363329286608831e+01
-4.033622568208252090e+01 2.764635347422164457e+01 1.788663865895705696e+00 2.764635347422164457e+01 -9.646854298585736842e+01 -3.522453189942818597e+01 1.788663865895705696e+00 -3.522453189942818597e+01 -2.309943123026207967e+00
-1.435871293608727228e+02 -1.279803569224382898e+01 -5.593291148410759916e+01 -1.279803569224382898e+01 -7.467793546463498444e+01 3.371502422309475389e+00 -5.593291148410759916e+01 3.371502422309475389e+00 -1.158355567508324100e+02
5.120239640425666749e+01 1.297610713024179852e+01 -3.665689736761342488e+01 1.297610713024179852e+01 -9.183981946073117797e+01 -2.160990661372007793e+01 -3.665689736761342488e+01 -2.160990661372007793e+01 -3.450758971466436265e+01
-1.154264481712724546e+02 3.660359145957377791e+01 1.689372019036813910e+01 3.660359145957377791e+01 -1.253229813140997635e+02 2.286313761841178405e+01 1.689372019036813910e+01 2.286313761841178405e+01 -1.026930800117000615e+02
-1.978958475451235088e+01 2.163732066947760657e+01 6.220587045104925750e+01 2.163732066947760657e+01 -1.219903914009023254e+02 4.505919841049704999e+00 6.220587045104925750e+01 4.505919841049704999e+00 -6.454400903524191335e+01
-8.179277340862290657e+01 -1.085284521818716374e+00 1.915697403776180607e+01 -1.085284521818716374e+00 -7.162522034690653072e+01 -4.122084005431187848e+01 1.915697403776180607e+01 -4.122084005431187848e+01 -3.793184592212260497e+01
-8.719466059848049611e+01 1.322994027614250179e+01 3.183835007923378591e+00 1.322994027614250179e+01 -7.858478750266077384e+01 -3.189276854907101821e+01 3.183835007923378591e+00 -3.189276854907101821e+01 -9.258734358964346711e+01
-1.401744291047670572e+02 -1.373655099515811706e+01 2.931703897390498526e+01 -1.373655099515811706e+01 -3.645574775148301683e+01 -6.509271969660344048e+00 2.931703897390498526e+01 -6.509271969660344048e+00 -5.335571207914384217e+01
-1.074622211961943776e+02 -1.007575862818993961e+01 2.847511681232873126e+00 -1.007575862818993961e+01 -7.856140447291514306e+01 4.825428766164313288e+01 2.847511681232873126e+00 4.825428766164313288e+01 -8.294200228274888786e+01
-8.916985810448849747e+01 1.154153812630484666e+01 9.222897251156339848e+00 1.154153812630484666e+01 -4.152821402593603040e+01 7.082166875804356998e+00 9.222897251156339848e+00 7.082166875804356998e+00 -5.326151880084059798e+01
-5.923008788045851247e+01 1.347752553376460050e+01 2.094061409037197663e+01 1.347752553376460050e+01 -1.519987133392535839e+02 -3.025585346021012612e+01 2.094061409037197663e+01 -3.025585346021012612e+01 -3.571038926383646128e+01