1.585599999999999987e+01 0.000000000000000000e+00 0.000000000000000000e+00 0.000000000000000000e+00 1.585599999999999987e+01 0.000000000000000000e+00 0.000000000000000000e+00 0.000000000000000000e+00 1.585599999999999987e+01
1.699200000000000088e+01 0.000000000000000000e+00 0.000000000000000000e+00 0.000000000000000000e+00 1.699200000000000088e+01 0.000000000000000000e+00 0.000000000000000000e+00 0.000000000000000000e+00 1.699200000000000088e+01
1.575900000000000034e+01 0.000000000000000000e+00 0.000000000000000000e+00 0.000000000000000000e+00 1.575900000000000034e+01 0.000000000000000000e+00 0.000000000000000000e+00 0.000000000000000000e+00 1.575900000000000034e+01
1.549900000000000055e+01 0.000000000000000000e+00 0.000000000000000000e+00 0.000000000000000000e+00 1.549900000000000055e+01 0.000000000000000000e+00 0.000000000000000000e+00 0.000000000000000000e+00 1.549900000000000055e+01
1.550300000000000011e+01 0.000000000000000000e+00 0.000000000000000000e+00 0.000000000000000000e+00 1.550300000000000011e+01 0.000000000000000000e+00 0.000000000000000000e+00 0.000000000000000000e+00 1.550300000000000011e+01
1.612300000000000111e+01 0.000000000000000000e+00 0.000000000000000000e+00 0.000000000000000000e+00 1.612300000000000111e+01 0.000000000000000000e+00 0.000000000000000000e+00 0.000000000000000000e+00 1.612300000000000111e+01
1.693499999999999872e+01 0.000000000000000000e+00 0.000000000000000000e+00 0.000000000000000000e+00 1.693499999999999872e+01 0.000000000000000000e+00 0.000000000000000000e+00 0.000000000000000000e+00 1.693499999999999872e+01
1.540499999999999936e+01 0.000000000000000000e+00 0.000000000000000000e+00 0.000000000000000000e+00 1.540499999999999936e+01 0.000000000000000000e+00 0.000000000000000000e+00 0.000000000000000000e+00 1.540499999999999936e+01
1.555599999999999916e+01 0.000000000000000000e+00 0.000000000000000000e+00 0.000000000000000000e+00 1.555599999999999916e+01 0.000000000000000000e+00 0.000000000000000000e+00 0.000000000000000000e+00 1.555599999999999916e+01
1.692699999999999960e+01 0.000000000000000000e+00 0.000000000000000000e+00 0.000000000000000000e+00 1.692699999999999960e+01 0.000000000000000000e+00 0.000000000000000000e+00 0.000000000000000000e+00 1.692699999999999960e+01
1.560100000000000087e+01 0.000000000000000000e+00 0.000000000000000000e+00 0.000000000000000000e+00 1.560100000000000087e+01 0.000000000000000000e+00 0.000000000000000000e+00 0.000000000000000000e+00 1.560100000000000087e+01
1.561299999999999955e+01 0.000000000000000000e+00 0.000000000000000000e+00 0.000000000000000000e+00 1.561299999999999955e+01 0.000000000000000000e+00 0.000000000000000000e+00 0.000000000000000000e+00 1.561299999999999955e+01
1.553100000000000058e+01 0.000000000000000000e+00 0.000000000000000000e+00 0.000000000000000000e+00 1.553100000000000058e+01 0.000000000000000000e+00 0.000000000000000000e+00 0.000000000000000000e+00 1.553100000000000058e+01
1.535599999999999987e+01 0.000000000000000000e+00 0.000000000000000000e+00 0.000000000000000000e+00 1.535599999999999987e+01 0.000000000000000000e+00 0.000000000000000000e+00 0.000000000000000000e+00 1.535599999999999987e+01
1.588000000000000078e+01 0.000000000000000000e+00 0.000000000000000000e+00 0.000000000000000000e+00 1.588000000000000078e+01 0.000000000000000000e+00 0.000000000000000000e+00 0.000000000000000000e+00 1.588000000000000078e+01
1.564600000000000080e+01 0.000000000000000000e+00 0.000000000000000000e+00 0.000000000000000000e+00 1.564600000000000080e+01 0.000000000000000000e+00 0.000000000000000000e+00 0.000000000000000000e+00 1.564600000000000080e+01
1.697899999999999920e+01 0.000000000000000000e+00 0.000000000000000000e+00 0.000000000000000000e+00 1.697899999999999920e+01 0.000000000000000000e+00 0.000000000000000000e+00 0.000000000000000000e+00 1.697899999999999920e+01
1.564400000000000013e+01 0.000000000000000000e+00 0.000000000000000000e+00 0.000000000000000000e+00 1.564400000000000013e+01 0.000000000000000000e+00 0.000000000000000000e+00 0.000000000000000000e+00 1.564400000000000013e+01
1.692800000000000082e+01 0.000000000000000000e+00 0.000000000000000000e+00 0.000000000000000000e+00 1.692800000000000082e+01 0.000000000000000000e+00 0.000000000000000000e+00 0.000000000000000000e+00 1.692800000000000082e+01
1.580400000000000027e+01 0.000000000000000000e+00 0.000000000000000000e+00 0.000000000000000000e+00 1.580400000000000027e+01 0.000000000000000000e+00 0.000000000000000000e+00 0.000000000000000000e+00 1.580400000000000027e+01
1.548700000000000010e+01 0.000000000000000000e+00 0.000000000000000000e+00 0.000000000000000000e+00 1.548700000000000010e+01 0.000000000000000000e+00 0.000000000000000000e+00 0.000000000000000000e+00 1.548700000000000010e+01
1.609600000000000009e+01 0.000000000000000000e+00 0.000000000000000000e+00 0.000000000000000000e+00 1.609600000000000009e+01 0.000000000000000000e+00 0.000000000000000000e+00 0.000000000000000000e+00 1.609600000000000009e+01
1.553700000000000081e+01 0.000000000000000000e+00 0.000000000000000000e+00 0.000000000000000000e+00 1.553700000000000081e+01 0.000000000000000000e+00 0.000000000000000000e+00 0.000000000000000000e+00 1.553700000000000081e+01
1.541399999999999970e+01 0.000000000000000000e+00 0.000000000000000000e+00 0.000000000000000000e+00 1.541399999999999970e+01 0.000000000000000000e+00 0.000000000000000000e+00 0.000000000000000000e+00 1.541399999999999970e+01
1.553200000000000003e+01 0.000000000000000000e+00 0.000000000000000000e+00 0.000000000000000000e+00 1.553200000000000003e+01 0.000000000000000000e+00 0.000000000000000000e+00 0.000000000000000000e+00 1.553200000000000003e+01
1.550799999999999912e+01 0.000000000000000000e+00 0.000000000000000000e+00 0.000000000000000000e+00 1.550799999999999912e+01 0.000000000000000000e+00 0.000000000000000000e+00 0.000000000000000000e+00 1.550799999999999912e+01
1.577399999999999913e+01 0.000000000000000000e+00 0.000000000000000000e+00 0.000000000000000000e+00 1.577399999999999913e+01 0.000000000000000000e+00 0.000000000000000000e+00 0.000000000000000000e+00 1.577399999999999913e+01
1.671600000000000108e+01 0.000000000000000000e+00 0.000000000000000000e+00 0.000000000000000000e+00 1.671600000000000108e+01 0.000000000000000000e+00 0.000000000000000000e+00 0.000000000000000000e+00 1.671600000000000108e+01
1.580599999999999916e+01 0.000000000000000000e+00 0.000000000000000000e+00 0.000000000000000000e+00 1.580599999999999916e+01 0.000000000000000000e+00 0.000000000000000000e+00 0.000000000000000000e+00 1.580599999999999916e+01
1.652400000000000091e+01 0.000000000000000000e+00 0.000000000000000000e+00 0.000000000000000000e+00 1.652400000000000091e+01 0.000000000000000000e+00 0.000000000000000000e+00 0.000000000000000000e+00 1.652400000000000091e+01
1.653600000000000136e+01 0.000000000000000000e+00 0.000000000000000000e+00 0.000000000000000000e+00 1.653600000000000136e+01 0.000000000000000000e+00 0.000000000000000000e+00 0.000000000000000000e+00 1.653600000000000136e+01
1.541999999999999993e+01 0.000000000000000000e+00 0.000000000000000000e+00 0.000000000000000000e+00 1.541999999999999993e+01 0.000000000000000000e+00 0.000000000000000000e+00 0.000000000000000000e+00 1.541999999999999993e+01
1.546100000000000030e+01 0.000000000000000000e+00 0.000000000000000000e+00 0.000000000000000000e+00 1.546100000000000030e+01 0.000000000000000000e+00 0.000000000000000000e+00 0.000000000000000000e+00 1.546100000000000030e+01
1.554100000000000037e+01 0.000000000000000000e+00 0.000000000000000000e+00 0.000000000000000000e+00 1.554100000000000037e+01 0.000000000000000000e+00 0.000000000000000000e+00 0.000000000000000000e+00 1.554100000000000037e+01
1.531099999999999994e+01 0.000000000000000000e+00 0.000000000000000000e+00 0.000000000000000000e+00 1.531099999999999994e+01 0.000000000000000000e+00 0.000000000000000000e+00 0.000000000000000000e+00 1.531099999999999994e+01
1.683999999999999986e+01 0.000000000000000000e+00 0.000000000000000000e+00 0.000000000000000000e+00 1.683999999999999986e+01 0.000000000000000000e+00 0.000000000000000000e+00 0.000000000000000000e+00 1.683999999999999986e+01
1.580000000000000071e+01 0.000000000000000000e+00 0.000000000000000000e+00 0.000000000000000000e+00 1.580000000000000071e+01 0.000000000000000000e+00 0.000000000000000000e+00 0.000000000000000000e+00 1.580000000000000071e+01
1.551999999999999957e+01 0.000000000000000000e+00 0.000000000000000000e+00 0.000000000000000000e+00 1.551999999999999957e+01 0.000000000000000000e+00 0.000000000000000000e+00 0.000000000000000000e+00 1.551999999999999957e+01
1.568200000000000038e+01 0.000000000000000000e+00 0.000000000000000000e+00 0.000000000000000000e+00 1.568200000000000038e+01 0.000000000000000000e+00 0.000000000000000000e+00 0.000000000000000000e+00 1.568200000000000038e+01
1.768400000000000105e+01 0.000000000000000000e+00 0.000000000000000000e+00 0.000000000000000000e+00 1.768400000000000105e+01 0.000000000000000000e+00 0.000000000000000000e+00 0.000000000000000000e+00 1.768400000000000105e+01
1.746199999999999974e+01 0.000000000000000000e+00 0.000000000000000000e+00 0.000000000000000000e+00 1.746199999999999974e+01 0.000000000000000000e+00 0.000000000000000000e+00 0.000000000000000000e+00 1.746199999999999974e+01
1.556900000000000084e+01 0.000000000000000000e+00 0.000000000000000000e+00 0.000000000000000000e+00 1.556900000000000084e+01 0.000000000000000000e+00 0.000000000000000000e+00 0.000000000000000000e+00 1.556900000000000084e+01
1.537299999999999933e+01 0.000000000000000000e+00 0.000000000000000000e+00 0.000000000000000000e+00 1.537299999999999933e+01 0.000000000000000000e+00 0.000000000000000000e+00 0.000000000000000000e+00 1.537299999999999933e+01
1.548600000000000065e+01 0.000000000000000000e+00 0.000000000000000000e+00 0.000000000000000000e+00 1.548600000000000065e+01 0.000000000000000000e+00 0.000000000000000000e+00 0.000000000000000000e+00 1.548600000000000065e+01
1.570299999999999940e+01 0.000000000000000000e+00 0.000000000000000000e+00 0.000000000000000000e+00 1.570299999999999940e+01 0.000000000000000000e+00 0.000000000000000000e+00 0.000000000000000000e+00 1.570299999999999940e+01
1.568200000000000038e+01 0.000000000000000000e+00 0.000000000000000000e+00 0.000000000000000000e+00 1.568200000000000038e+01 0.000000000000000000e+00 0.000000000000000000e+00 0.000000000000000000e+00 1.568200000000000038e+01
1.558600000000000030e+01 0.000000000000000000e+00 0.000000000000000000e+00 0.000000000000000000e+00 1.558600000000000030e+01 0.000000000000000000e+00 0.000000000000000000e+00 0.000000000000000000e+00 1.558600000000000030e+01
1.687000000000000099e+01 0.000000000000000000e+00 0.000000000000000000e+00 0.000000000000000000e+00 1.687000000000000099e+01 0.000000000000000000e+00 0.000000000000000000e+00 0.000000000000000000e+00 1.687000000000000099e+01
1.551399999999999935e+01 0.000000000000000000e+00 0.000000000000000000e+00 0.000000000000000000e+00 1.551399999999999935e+01 0.000000000000000000e+00 0.000000000000000000e+00 0.000000000000000000e+00 1.551399999999999935e+01
1.573799999999999955e+01 0.000000000000000000e+00 0.000000000000000000e+00 0.000000000000000000e+00 1.573799999999999955e+01 0.000000000000000000e+00 0.000000000000000000e+00 0.000000000000000000e+00 1.573799999999999955e+01
1.629299999999999926e+01 0.000000000000000000e+00 0.000000000000000000e+00 0.000000000000000000e+00 1.629299999999999926e+01 0.000000000000000000e+00 0.000000000000000000e+00 0.000000000000000000e+00 1.629299999999999926e+01
1.554400000000000048e+01 0.000000000000000000e+00 0.000000000000000000e+00 0.000000000000000000e+00 1.554400000000000048e+01 0.000000000000000000e+00 0.000000000000000000e+00 0.000000000000000000e+00 1.554400000000000048e+01
1.584999999999999964e+01 0.000000000000000000e+00 0.000000000000000000e+00 0.000000000000000000e+00 1.584999999999999964e+01 0.000000000000000000e+00 0.000000000000000000e+00 0.000000000000000000e+00 1.584999999999999964e+01
1.548300000000000054e+01 0.000000000000000000e+00 0.000000000000000000e+00 0.000000000000000000e+00 1.548300000000000054e+01 0.000000000000000000e+00 0.000000000000000000e+00 0.000000000000000000e+00 1.548300000000000054e+01
1.550200000000000067e+01 0.000000000000000000e+00 0.000000000000000000e+00 0.000000000000000000e+00 1.550200000000000067e+01 0.000000000000000000e+00 0.000000000000000000e+00 0.000000000000000000e+00 1.550200000000000067e+01
1.615399999999999991e+01 0.000000000000000000e+00 0.000000000000000000e+00 0.000000000000000000e+00 1.615399999999999991e+01 0.000000000000000000e+00 0.000000000000000000e+00 0.000000000000000000e+00 1.615399999999999991e+01
1.734299999999999997e+01 0.000000000000000000e+00 0.000000000000000000e+00 0.000000000000000000e+00 1.734299999999999997e+01 0.000000000000000000e+00 0.000000000000000000e+00 0.000000000000000000e+00 1.734299999999999997e+01
1.566300000000000026e+01 0.000000000000000000e+00 0.000000000000000000e+00 0.000000000000000000e+00 1.566300000000000026e+01 0.000000000000000000e+00 0.000000000000000000e+00 0.000000000000000000e+00 1.566300000000000026e+01
1.529800000000000004e+01 0.000000000000000000e+00 0.000000000000000000e+00 0.000000000000000000e+00 1.529800000000000004e+01 0.000000000000000000e+00 0.000000000000000000e+00 0.000000000000000000e+00 1.529800000000000004e+01
1.537800000000000011e+01 0.000000000000000000e+00 0.000000000000000000e+00 0.000000000000000000e+00 1.537800000000000011e+01 0.000000000000000000e+00 0.000000000000000000e+00 0.000000000000000000e+00 1.537800000000000011e+01
1.545700000000000074e+01 0.000000000000000000e+00 0.000000000000000000e+00 0.000000000000000000e+00 1.545700000000000074e+01 0.000000000000000000e+00 0.000000000000000000e+00 0.000000000000000000e+00 1.545700000000000074e+01
1.657300000000000040e+01 0.000000000000000000e+00 0.000000000000000000e+00 0.000000000000000000e+00 1.657300000000000040e+01 0.000000000000000000e+00 0.000000000000000000e+00 0.000000000000000000e+00 1.657300000000000040e+01
1.577100000000000080e+01 0.000000000000000000e+00 0.000000000000000000e+00 0.000000000000000000e+00 1.577100000000000080e+01 0.000000000000000000e+00 0.000000000000000000e+00 0.000000000000000000e+00 1.577100000000000080e+01
1.575099999999999945e+01 0.000000000000000000e+00 0.000000000000000000e+00 0.000000000000000000e+00 1.575099999999999945e+01 0.000000000000000000e+00 0.000000000000000000e+00 0.000000000000000000e+00 1.575099999999999945e+01
1.571700000000000053e+01 0.000000000000000000e+00 0.000000000000000000e+00 0.000000000000000000e+00 1.571700000000000053e+01 0.000000000000000000e+00 0.000000000000000000e+00 0.000000000000000000e+00 1.571700000000000053e+01
1.592099999999999937e+01 0.000000000000000000e+00 0.000000000000000000e+00 0.000000000000000000e+00 1.592099999999999937e+01 0.000000000000000000e+00 0.000000000000000000e+00 0.000000000000000000e+00 1.592099999999999937e+01
1.519100000000000072e+01 0.000000000000000000e+00 0.000000000000000000e+00 0.000000000000000000e+00 1.519100000000000072e+01 0.000000000000000000e+00 0.000000000000000000e+00 0.000000000000000000e+00 1.519100000000000072e+01
1.702400000000000091e+01 0.000000000000000000e+00 0.000000000000000000e+00 0.000000000000000000e+00 1.702400000000000091e+01 0.000000000000000000e+00 0.000000000000000000e+00 0.000000000000000000e+00 1.702400000000000091e+01
1.555000000000000071e+01 0.000000000000000000e+00 0.000000000000000000e+00 0.000000000000000000e+00 1.555000000000000071e+01 0.000000000000000000e+00 0.000000000000000000e+00 0.000000000000000000e+00 1.555000000000000071e+01
1.653500000000000014e+01 0.000000000000000000e+00 0.000000000000000000e+00 0.000000000000000000e+00 1.653500000000000014e+01 0.000000000000000000e+00 0.000000000000000000e+00 0.000000000000000000e+00 1.653500000000000014e+01
1.563400000000000034e+01 0.000000000000000000e+00 0.000000000000000000e+00 0.000000000000000000e+00 1.563400000000000034e+01 0.000000000000000000e+00 0.000000000000000000e+00 0.000000000000000000e+00 1.563400000000000034e+01
1.539499999999999957e+01 0.000000000000000000e+00 0.000000000000000000e+00 0.000000000000000000e+00 1.539499999999999957e+01 0.000000000000000000e+00 0.000000000000000000e+00 0.000000000000000000e+00 1.539499999999999957e+01
1.565700000000000003e+01 0.000000000000000000e+00 0.000000000000000000e+00 0.000000000000000000e+00 1.565700000000000003e+01 0.000000000000000000e+00 0.000000000000000000e+00 0.000000000000000000e+00 1.565700000000000003e+01
1.674399999999999977e+01 0.000000000000000000e+00 0.000000000000000000e+00 0.000000000000000000e+00 1.674399999999999977e+01 0.000000000000000000e+00 0.000000000000000000e+00 0.000000000000000000e+00 1.674399999999999977e+01
1.559999999999999964e+01 0.000000000000000000e+00 0.000000000000000000e+00 0.000000000000000000e+00 1.559999999999999964e+01 0.000000000000000000e+00 0.000000000000000000e+00 0.000000000000000000e+00 1.559999999999999964e+01
1.557399999999999984e+01 0.000000000000000000e+00 0.000000000000000000e+00 0.000000000000000000e+00 1.557399999999999984e+01 0.000000000000000000e+00 0.000000000000000000e+00 0.000000000000000000e+00 1.557399999999999984e+01
1.557799999999999940e+01 0.000000000000000000e+00 0.000000000000000000e+00 0.000000000000000000e+00 1.557799999999999940e+01 0.000000000000000000e+00 0.000000000000000000e+00 0.000000000000000000e+00 1.557799999999999940e+01
1.549000000000000021e+01 0.000000000000000000e+00 0.000000000000000000e+00 0.000000000000000000e+00 1.549000000000000021e+01 0.000000000000000000e+00 0.000000000000000000e+00 0.000000000000000000e+00 1.549000000000000021e+01
1.515700000000000003e+01 0.000000000000000000e+00 0.000000000000000000e+00 0.000000000000000000e+00 1.515700000000000003e+01 0.000000000000000000e+00 0.000000000000000000e+00 0.000000000000000000e+00 1.515700000000000003e+01
1.559600000000000009e+01 0.000000000000000000e+00 0.000000000000000000e+00 0.000000000000000000e+00 1.559600000000000009e+01 0.000000000000000000e+00 0.000000000000000000e+00 0.000000000000000000e+00 1.559600000000000009e+01
1.653399999999999892e+01 0.000000000000000000e+00 0.000000000000000000e+00 0.000000000000000000e+00 1.653399999999999892e+01 0.000000000000000000e+00 0.000000000000000000e+00 0.000000000000000000e+00 1.653399999999999892e+01
1.560299999999999976e+01 0.000000000000000000e+00 0.000000000000000000e+00 0.000000000000000000e+00 1.560299999999999976e+01 0.000000000000000000e+00 0.000000000000000000e+00 0.000000000000000000e+00 1.560299999999999976e+01
1.535599999999999987e+01 0.000000000000000000e+00 0.000000000000000000e+00 0.000000000000000000e+00 1.535599999999999987e+01 0.000000000000000000e+00 0.000000000000000000e+00 0.000000000000000000e+00 1.535599999999999987e+01
1.561400000000000077e+01 0.000000000000000000e+00 0.000000000000000000e+00 0.000000000000000000e+00 1.561400000000000077e+01 0.000000000000000000e+00 0.000000000000000000e+00 0.000000000000000000e+00 1.561400000000000077e+01
1.530100000000000016e+01 0.000000000000000000e+00 0.000000000000000000e+00 0.000000000000000000e+00 1.530100000000000016e+01 0.000000000000000000e+00 0.000000000000000000e+00 0.000000000000000000e+00 1.530100000000000016e+01
1.550699999999999967e+01 0.000000000000000000e+00 0.000000000000000000e+00 0.000000000000000000e+00 1.550699999999999967e+01 0.000000000000000000e+00 0.000000000000000000e+00 0.000000000000000000e+00 1.550699999999999967e+01
1.551999999999999957e+01 0.000000000000000000e+00 0.000000000000000000e+00 0.000000000000000000e+00 1.551999999999999957e+01 0.000000000000000000e+00 0.000000000000000000e+00 0.000000000000000000e+00 1.551999999999999957e+01
1.620299999999999940e+01 0.000000000000000000e+00 0.000000000000000000e+00 0.000000000000000000e+00 1.620299999999999940e+01 0.000000000000000000e+00 0.000000000000000000e+00 0.000000000000000000e+00 1.620299999999999940e+01
1.550200000000000067e+01 0.000000000000000000e+00 0.000000000000000000e+00 0.000000000000000000e+00 1.550200000000000067e+01 0.000000000000000000e+00 0.000000000000000000e+00 0.000000000000000000e+00 1.550200000000000067e+01
1.565099999999999980e+01 0.000000000000000000e+00 0.000000000000000000e+00 0.000000000000000000e+00 1.565099999999999980e+01 0.000000000000000000e+00 0.000000000000000000e+00 0.000000000000000000e+00 1.565099999999999980e+01
1.624599999999999866e+01 0.000000000000000000e+00 0.000000000000000000e+00 0.000000000000000000e+00 1.624599999999999866e+01 0.000000000000000000e+00 0.000000000000000000e+00 0.000000000000000000e+00 1.624599999999999866e+01
1.671699999999999875e+01 0.000000000000000000e+00 0.000000000000000000e+00 0.000000000000000000e+00 1.671699999999999875e+01 0.000000000000000000e+00 0.000000000000000000e+00 0.000000000000000000e+00 1.671699999999999875e+01
1.582900000000000063e+01 0.000000000000000000e+00 0.000000000000000000e+00 0.000000000000000000e+00 1.582900000000000063e+01 0.000000000000000000e+00 0.000000000000000000e+00 0.000000000000000000e+00 1.582900000000000063e+01
1.593800000000000061e+01 0.000000000000000000e+00 0.000000000000000000e+00 0.000000000000000000e+00 1.593800000000000061e+01 0.000000000000000000e+00 0.000000000000000000e+00 0.000000000000000000e+00 1.593800000000000061e+01
1.642399999999999949e+01 0.000000000000000000e+00 0.000000000000000000e+00 0.000000000000000000e+00 1.642399999999999949e+01 0.000000000000000000e+00 0.000000000000000000e+00 0.000000000000000000e+00 1.642399999999999949e+01
1.568699999999999939e+01 0.000000000000000000e+00 0.000000000000000000e+00 0.000000000000000000e+00 1.568699999999999939e+01 0.000000000000000000e+00 0.000000000000000000e+00 0.000000000000000000e+00 1.568699999999999939e+01
1.551200000000000045e+01 0.000000000000000000e+00 0.000000000000000000e+00 0.000000000000000000e+00 1.551200000000000045e+01 0.000000000000000000e+00 0.000000000000000000e+00 0.000000000000000000e+00 1.551200000000000045e+01
1.646499999999999986e+01 0.000000000000000000e+00 0.000000000000000000e+00 0.000000000000000000e+00 1.646499999999999986e+01 0.000000000000000000e+00 0.000000000000000000e+00 0.000000000000000000e+00 1.646499999999999986e+01
1.576999999999999957e+01 0.000000000000000000e+00 0.000000000000000000e+00 0.000000000000000000e+00 1.576999999999999957e+01 0.000000000000000000e+00 0.000000000000000000e+00 0.000000000000000000e+00 1.576999999999999957e+01
1.550500000000000078e+01 0.000000000000000000e+00 0.000000000000000000e+00 0.000000000000000000e+00 1.550500000000000078e+01 0.000000000000000000e+00 0.000000000000000000e+00 0.000000000000000000e+00 1.550500000000000078e+01
1.556600000000000072e+01 0.000000000000000000e+00 0.000000000000000000e+00 0.000000000000000000e+00 1.556600000000000072e+01 0.000000000000000000e+00 0.000000000000000000e+00 0.000000000000000000e+00 1.556600000000000072e+01
1.560200000000000031e+01 0.000000000000000000e+00 0.000000000000000000e+00 0.000000000000000000e+00 1.560200000000000031e+01 0.000000000000000000e+00 0.000000000000000000e+00 0.000000000000000000e+00 1.560200000000000031e+01
1.561299999999999955e+01 0.000000000000000000e+00 0.000000000000000000e+00 0.000000000000000000e+00 1.561299999999999955e+01 0.000000000000000000e+00 0.000000000000000000e+00 0.000000000000000000e+00 1.561299999999999955e+01
1.560999999999999943e+01 0.000000000000000000e+00 0.000000000000000000e+00 0.000000000000000000e+00 1.560999999999999943e+01 0.000000000000000000e+00 0.000000000000000000e+00 0.000000000000000000e+00 1.560999999999999943e+01
1.631500000000000128e+01 0.000000000000000000e+00 0.000000000000000000e+00 0.000000000000000000e+00 1.631500000000000128e+01 0.000000000000000000e+00 0.000000000000000000e+00 0.000000000000000000e+00 1.631500000000000128e+01
1.540700000000000003e+01 0.000000000000000000e+00 0.000000000000000000e+00 0.000000000000000000e+00 1.540700000000000003e+01 0.000000000000000000e+00 0.000000000000000000e+00 0.000000000000000000e+00 1.540700000000000003e+01
1.530300000000000082e+01 0.000000000000000000e+00 0.000000000000000000e+00 0.000000000000000000e+00 1.530300000000000082e+01 0.000000000000000000e+00 0.000000000000000000e+00 0.000000000000000000e+00 1.530300000000000082e+01
1.559200000000000053e+01 0.000000000000000000e+00 0.000000000000000000e+00 0.000000000000000000e+00 1.559200000000000053e+01 0.000000000000000000e+00 0.000000000000000000e+00 0.000000000000000000e+00 1.559200000000000053e+01
1.594299999999999962e+01 0.000000000000000000e+00 0.000000000000000000e+00 0.000000000000000000e+00 1.594299999999999962e+01 0.000000000000000000e+00 0.000000000000000000e+00 0.000000000000000000e+00 1.594299999999999962e+01
1.591000000000000014e+01 0.000000000000000000e+00 0.000000000000000000e+00 0.000000000000000000e+00 1.591000000000000014e+01 0.000000000000000000e+00 0.000000000000000000e+00 0.000000000000000000e+00 1.591000000000000014e+01
1.562199999999999989e+01 0.000000000000000000e+00 0.000000000000000000e+00 0.000000000000000000e+00 1.562199999999999989e+01 0.000000000000000000e+00 0.000000000000000000e+00 0.000000000000000000e+00 1.562199999999999989e+01
1.582900000000000063e+01 0.000000000000000000e+00 0.000000000000000000e+00 0.000000000000000000e+00 1.582900000000000063e+01 0.000000000000000000e+00 0.000000000000000000e+00 0.000000000000000000e+00 1.582900000000000063e+01
1.569500000000000028e+01 0.000000000000000000e+00 0.000000000000000000e+00 0.000000000000000000e+00 1.569500000000000028e+01 0.000000000000000000e+00 0.000000000000000000e+00 0.000000000000000000e+00 1.569500000000000028e+01
1.549300000000000033e+01 0.000000000000000000e+00 0.000000000000000000e+00 0.000000000000000000e+00 1.549300000000000033e+01 0.000000000000000000e+00 0.000000000000000000e+00 0.000000000000000000e+00 1.549300000000000033e+01
1.607999999999999829e+01 0.000000000000000000e+00 0.000000000000000000e+00 0.000000000000000000e+00 1.607999999999999829e+01 0.000000000000000000e+00 0.000000000000000000e+00 0.000000000000000000e+00 1.607999999999999829e+01
1.556400000000000006e+01 0.000000000000000000e+00 0.000000000000000000e+00 0.000000000000000000e+00 1.556400000000000006e+01 0.000000000000000000e+00 0.000000000000000000e+00 0.000000000000000000e+00 1.556400000000000006e+01
1.648900000000000077e+01 0.000000000000000000e+00 0.000000000000000000e+00 0.000000000000000000e+00 1.648900000000000077e+01 0.000000000000000000e+00 0.000000000000000000e+00 0.000000000000000000e+00 1.648900000000000077e+01
1.532600000000000051e+01 0.000000000000000000e+00 0.000000000000000000e+00 0.000000000000000000e+00 1.532600000000000051e+01 0.000000000000000000e+00 0.000000000000000000e+00 0.000000000000000000e+00 1.532600000000000051e+01
1.585999999999999943e+01 0.000000000000000000e+00 0.000000000000000000e+00 0.000000000000000000e+00 1.585999999999999943e+01 0.000000000000000000e+00 0.000000000000000000e+00 0.000000000000000000e+00 1.585999999999999943e+01
1.576299999999999990e+01 0.000000000000000000e+00 0.000000000000000000e+00 0.000000000000000000e+00 1.576299999999999990e+01 0.000000000000000000e+00 0.000000000000000000e+00 0.000000000000000000e+00 1.576299999999999990e+01
1.546000000000000085e+01 0.000000000000000000e+00 0.000000000000000000e+00 0.000000000000000000e+00 1.546000000000000085e+01 0.000000000000000000e+00 0.000000000000000000e+00 0.000000000000000000e+00 1.546000000000000085e+01
1.651300000000000168e+01 0.000000000000000000e+00 0.000000000000000000e+00 0.000000000000000000e+00 1.651300000000000168e+01 0.000000000000000000e+00 0.000000000000000000e+00 0.000000000000000000e+00 1.651300000000000168e+01
1.530599999999999916e+01 0.000000000000000000e+00 0.000000000000000000e+00 0.000000000000000000e+00 1.530599999999999916e+01 0.000000000000000000e+00 0.000000000000000000e+00 0.000000000000000000e+00 1.530599999999999916e+01
1.553700000000000081e+01 0.000000000000000000e+00 0.000000000000000000e+00 0.000000000000000000e+00 1.553700000000000081e+01 0.000000000000000000e+00 0.000000000000000000e+00 0.000000000000000000e+00 1.553700000000000081e+01
1.569999999999999929e+01 0.000000000000000000e+00 0.000000000000000000e+00 0.000000000000000000e+00 1.569999999999999929e+01 0.000000000000000000e+00 0.000000000000000000e+00 0.000000000000000000e+00 1.569999999999999929e+01
1.582699999999999996e+01 0.000000000000000000e+00 0.000000000000000000e+00 0.000000000000000000e+00 1.582699999999999996e+01 0.000000000000000000e+00 0.000000000000000000e+00 0.000000000000000000e+00 1.582699999999999996e+01
1.673799999999999955e+01 0.000000000000000000e+00 0.000000000000000000e+00 0.000000000000000000e+00 1.673799999999999955e+01 0.000000000000000000e+00 0.000000000000000000e+00 0.000000000000000000e+00 1.673799999999999955e+01
1.649699999999999989e+01 0.000000000000000000e+00 0.000000000000000000e+00 0.000000000000000000e+00 1.649699999999999989e+01 0.000000000000000000e+00 0.000000000000000000e+00 0.000000000000000000e+00 1.649699999999999989e+01
1.600100000000000122e+01 0.000000000000000000e+00 0.000000000000000000e+00 0.000000000000000000e+00 1.600100000000000122e+01 0.000000000000000000e+00 0.000000000000000000e+00 0.000000000000000000e+00 1.600100000000000122e+01
1.547000000000000064e+01 0.000000000000000000e+00 0.000000000000000000e+00 0.000000000000000000e+00 1.547000000000000064e+01 0.000000000000000000e+00 0.000000000000000000e+00 0.000000000000000000e+00 1.547000000000000064e+01
1.622899999999999920e+01 0.000000000000000000e+00 0.000000000000000000e+00 0.000000000000000000e+00 1.622899999999999920e+01 0.000000000000000000e+00 0.000000000000000000e+00 0.000000000000000000e+00 1.622899999999999920e+01
1.555300000000000082e+01 0.000000000000000000e+00 0.000000000000000000e+00 0.000000000000000000e+00 1.555300000000000082e+01 0.000000000000000000e+00 0.000000000000000000e+00 0.000000000000000000e+00 1.555300000000000082e+01
1.670899999999999963e+01 0.000000000000000000e+00 0.000000000000000000e+00 0.000000000000000000e+00 1.670899999999999963e+01 0.000000000000000000e+00 0.000000000000000000e+00 0.000000000000000000e+00 1.670899999999999963e+01