6.910383999999999638e+00 9.673683999999999727e+00 1.028458400000000061e+01 1.292138399999999976e+01 2.538683999999999941e+00 2.922693999999999903e+00 8.462963999999999487e+00 1.418218399999999946e+01 3.558834000000000053e+00 8.055234000000000449e+00 2.180403999999999787e+00 2.655343999999999927e+00 8.764934000000000225e+00 1.023398399999999953e+01 4.801650000000000085e-01 8.377824000000000382e+00 1.010518399999999950e+01 8.246183999999999514e+00 1.932754000000000083e+00 8.747113999999999834e+00 6.434613999999999834e+00 6.231434000000000140e+00 1.335108400000000017e+01 1.191668400000000005e+01 1.206368400000000030e+01 6.950600000000000112e-01 1.382858399999999932e+01 4.528203999999999674e+00 1.786604000000000081e+00 8.503399999999999848e-02 4.231703999999999688e+00 1.581678400000000018e+01 6.115383999999999709e+00 1.296288400000000074e+01 1.425658400000000015e+01 3.844304000000000165e+00 6.372253999999999863e+00 2.480779999999999930e-01 7.243453999999999837e+00 7.191624000000000017e+00 7.473384000000000249e+00 1.451498400000000011e+01 1.301658399999999993e+01 4.962443999999999633e+00 8.927163999999999433e+00 8.140933999999999671e+00 5.744824000000000375e+00 1.427318400000000054e+01 7.292294000000000054e+00 8.473883999999999972e+00 2.094463999999999881e+00 3.752514000000000127e+00 5.715944000000000358e+00 1.267314000000000052e+00 8.535463999999999274e+00 9.915739999999999554e-01 1.366008399999999945e+01 7.065044000000000324e+00 9.841199999999999948e-02 3.060254000000000030e+00 5.849844000000000044e+00 5.121984000000000314e+00 1.004968399999999917e+01 1.045898399999999917e+01 9.719940000000000246e-01 1.555808399999999914e+01 1.526398400000000066e+01 1.023668400000000034e+01 7.555223999999999940e+00 1.006578400000000073e+01 4.378963999999999857e+00 1.438578399999999924e+01 8.071699999999999708e-02 5.552173999999999943e+00 1.636624000000000079e+00 1.144208399999999948e+01 3.069704000000000210e+00 9.907163999999999859e+00 3.917154000000000025e+00 1.246188399999999952e+01 1.143458399999999919e+01 1.158948400000000056e+01 6.675043999999999755e+00 1.021288400000000074e+01 7.241544000000000203e+00 8.729903999999999442e+00 1.263948399999999950e+01 1.562488399999999977e+01 1.541478399999999915e+01 5.161004000000000147e+00 3.538873999999999853e+00 1.217888400000000004e+01 1.495878399999999964e+01 8.444373999999999825e+00 1.562308400000000042e+01 8.574844000000000577e+00 3.822604000000000113e+00 9.483173999999999992e+00 1.454248399999999997e+01 6.671274000000000370e+00 3.989074000000000009e+00 4.110853999999999786e+00 1.267018400000000078e+01 1.198338399999999915e+01 1.546648399999999945e+01 4.963803999999999661e+00 1.213068400000000047e+01 1.005633999999999917e+00 3.880993999999999833e+00 6.666133999999999560e+00 3.922254000000000129e+00 2.052043999999999979e+00 1.496078400000000030e+01 6.016913999999999874e+00 1.942654000000000103e+00 4.502013999999999960e+00 5.174114000000000324e+00 3.644363999999999937e+00 7.818094000000000321e+00 8.010464000000000695e+00 8.148339999999999472e-01 1.263648399999999938e+01 7.491643999999999970e+00 2.127244000000000135e+00 4.196393999999999735e+00 1.501033999999999979e+00 2.968064000000000036e+00 1.205228400000000022e+01 8.840424000000000504e+00 3.384103999999999779e+00 1.133548399999999923e+01 2.936834000000000167e+00 9.628714000000000439e+00 1.175338400000000050e+01 1.154088400000000014e+01 1.511758400000000080e+01 1.327518399999999943e+01 1.292558400000000063e+01 1.401560000000000028e-01 7.682333999999999996e+00 2.045884000000000036e+00 9.171193999999999846e+00 1.536658399999999958e+01 1.174598399999999998e+01 2.625913999999999859e+00 1.908163999999999971e+00 9.396943999999999519e+00 3.484874000000000027e+00 4.605673999999999602e+00 9.819494000000000611e+00 1.114738400000000063e+01 4.401133999999999880e+00 1.205268399999999929e+01 3.759954000000000018e+00 1.026268400000000014e+01 4.946763999999999939e+00 1.521268399999999943e+01 3.808453999999999784e+00 3.366194000000000131e+00 4.396334000000000408e+00 3.807263999999999982e+00 4.977064000000000377e+00 1.570588399999999929e+01 1.394388400000000061e+01 2.948024000000000200e+00 9.342484000000000677e+00 1.914444000000000035e+00 9.487014000000000280e+00 1.525318399999999919e+01 1.136948399999999992e+01 3.899604000000000070e+00 1.328908400000000078e+01 1.550138399999999983e+01 5.582233999999999696e+00 1.072488399999999942e+01 2.386454000000000075e+00 2.345934000000000186e+00 2.793503999999999987e+00 3.241934000000000093e+00 1.453518399999999922e+01 1.545958399999999955e+01 1.117168400000000084e+01 1.163908400000000043e+01 1.301703999999999972e+00 1.396808399999999928e+01 1.427488400000000013e+01 1.341298399999999980e+01 1.059558400000000056e+01 3.215374000000000176e+00 1.128968399999999939e+01 1.551898399999999967e+01 1.198168399999999956e+01 1.217838399999999943e+01 1.284298399999999951e+01 1.599364000000000008e+00 1.002748399999999940e+01 1.271168399999999998e+01 1.371258399999999966e+01 6.938693999999999917e+00 1.206578400000000073e+01 4.385614000000000345e+00 1.163788399999999967e+01 7.960734000000000421e+00 3.724203999999999848e+00 1.234653999999999918e+00 1.010198399999999985e+01 2.684623999999999899e+00 1.404968399999999917e+01 4.801383999999999652e+00 6.524633999999999823e+00 1.084558400000000056e+01 4.553893999999999664e+00 8.457639999999999603e-01 1.945403999999999911e+00 1.062158400000000036e+01 1.230698399999999992e+01 7.785274000000000250e+00 1.149498400000000053e+01 6.457154000000000060e+00 6.101744000000000057e+00 5.995674000000000170e+00 5.398723999999999634e+00 9.715163999999999689e+00 1.459478400000000065e+01 1.515618399999999966e+01 1.762583999999999929e+00 4.175834000000000046e+00 1.341538399999999953e+01 1.525998399999999933e+01 8.276384000000000185e+00 6.620663999999999660e+00 7.201404000000000138e+00 1.426768399999999914e+01 1.433628399999999914e+01 9.158863999999999450e+00 9.657044000000000850e+00 6.024434000000000289e+00 6.214094000000000229e+00 9.820944000000000784e+00 3.881403999999999854e+00 5.299894000000000105e+00 1.979473999999999956e+00 6.285103999999999580e+00 1.320698400000000028e+01 1.363918400000000020e+01 6.404283999999999644e+00 7.577703999999999773e+00 1.222418399999999927e+01 9.593040000000000456e-01 6.305244000000000071e+00 8.922399999999999776e-02 5.404759999999999565e-01 4.809324000000000154e+00 9.944283999999999679e+00 9.252974000000000032e+00 8.300834000000000046e+00 1.324948400000000071e+01 9.857794000000000167e+00 8.239114000000000715e+00 1.440544000000000047e+00 1.148138400000000026e+01 5.390953999999999802e+00 6.155383999999999745e+00 7.650223999999999691e+00 4.927223999999999826e+00 7.524333999999999634e+00 1.580818400000000068e+01 1.052338400000000007e+01 1.021908400000000050e+01 1.460278399999999976e+01 2.319653999999999883e+00 1.437783999999999951e+00 1.463883999999999963e+00 1.343278399999999984e+01 1.489348400000000083e+01 1.338158400000000015e+01 1.212528400000000062e+01 9.044074000000000169e+00 9.047784000000000049e+00 1.357178399999999918e+01 6.727654000000000245e+00 4.897433999999999621e+00 2.689993999999999996e+00 8.462184000000000594e+00 1.271088400000000007e+01 1.362408399999999986e+01 9.903933999999999571e+00 1.103488399999999992e+01 1.127368399999999937e+01 1.009218399999999960e+01 6.585113999999999912e+00 6.721489999999999965e-01 1.526668399999999970e+01 6.553560000000000496e-01 9.589273999999999631e+00 6.739753999999999579e+00 2.119854000000000127e+00 9.725334000000000145e+00 1.342938400000000065e+01 2.102183999999999831e+00 7.050314000000000192e+00 6.249054000000000109e+00 1.200538399999999939e+01 1.384249999999999925e-01 3.413073999999999941e+00 5.552824000000000204e+00 2.316784000000000177e+00 6.045443999999999818e+00 1.153218400000000088e+01 1.136918400000000062e+01 1.002958399999999983e+01 1.258918399999999949e+01 1.389224000000000014e+00 6.651843999999999646e+00 4.195464000000000304e+00 1.291148399999999974e+01 1.135018400000000049e+01 7.037683999999999607e+00 1.061808399999999963e+01 4.024714000000000347e+00 1.316888400000000026e+01 1.486604000000000037e+00 4.141113999999999962e+00 1.479588399999999915e+01 7.088254000000000055e+00 1.419224000000000041e+00 3.426794000000000118e+00 4.789973999999999954e+00 4.696524000000000143e+00 1.024498400000000053e+01 1.253848400000000041e+01 1.318998400000000082e+01 4.054690000000000238e-01 1.188608400000000032e+01 2.039833999999999925e+00 3.309893999999999892e+00 2.018164000000000069e+00 1.246138400000000068e+01 8.117473999999999634e+00 8.876633999999999247e+00 1.583053999999999961e+00 1.479808399999999935e+01 6.309914000000000023e+00 6.833123999999999754e+00 6.506893999999999956e+00 1.223628399999999949e+01 9.505133999999999972e+00 3.478184000000000164e+00 6.656723999999999641e+00 7.616374000000000422e+00 1.196608400000000039e+01 2.761384000000000061e+00 1.322908400000000029e+01 1.447408399999999951e+01 9.871904000000000678e+00 1.555878399999999928e+01 1.653900000000000092e-01 2.795474000000000014e+00 6.990844000000000058e+00 4.593043999999999905e+00 1.114068400000000025e+01 3.701223999999999847e+00 1.933173999999999948e+00 9.913653999999999300e+00 1.440478399999999937e+01 2.946623999999999910e+00 7.920163999999999760e+00 9.470743999999999829e+00 9.234393999999999991e+00 1.223358400000000046e+01 3.552383999999999986e+00 8.967024000000000328e+00 9.398474000000000217e+00 7.813250000000000473e-01 8.609934000000000864e+00 1.071308400000000027e+01 1.372368400000000044e+01 1.448868399999999923e+01 5.692340000000000177e-01 8.096743999999999275e+00 6.033024000000000164e+00 5.663683999999999941e+00 1.550018400000000085e+01 6.204004000000000296e+00 9.445923999999999765e+00 1.263928399999999996e+01 1.246818400000000082e+01 1.394198399999999971e+01 5.391384000000000398e+00 5.454133999999999816e+00 3.976264000000000021e+00 1.326143999999999989e+00 6.089733999999999980e+00 4.437923999999999758e+00 6.271673999999999971e+00 2.422839999999999994e-01 5.669063999999999659e+00 1.001968399999999981e+01 1.016218399999999988e+01 1.028618400000000044e+01 7.459533999999999665e+00 3.548383999999999983e+00 1.521268399999999943e+01 8.877433999999999159e+00 7.933093999999999646e+00 8.430633999999999517e+00 7.091534000000000226e+00 1.502008400000000066e+01 1.046138400000000068e+01 2.538104000000000138e+00 9.022563999999999140e+00 7.977634000000000114e+00 1.282030000000000114e-01 1.118788400000000038e+01 1.380978400000000050e+01 1.035278399999999976e+01 6.823973999999999762e+00 5.294354000000000227e+00 3.443283999999999789e+00 3.730284000000000155e+00 6.311513999999999847e+00 1.229688400000000037e+01 1.413543999999999912e+00 6.853054000000000201e+00 1.236688400000000065e+01 5.910353999999999886e+00 1.180238399999999999e+01 9.256674000000000291e+00 7.654154000000000124e+00 1.058988399999999963e+01 1.071488399999999963e+01 1.168858400000000053e+01 7.955663999999999625e+00 9.458323999999999288e+00 1.545163999999999982e+00 3.624233999999999956e+00 1.498083999999999971e+00 1.143634000000000039e+00 1.165698399999999957e+01 1.275423999999999891e+00 1.496318400000000004e+01 6.344293999999999656e+00 1.568628400000000056e+01 1.944533999999999985e+00 5.052284000000000219e+00 9.586233999999999256e+00 4.942823999999999884e+00 1.557338400000000078e+01 1.271948399999999957e+01 3.268654000000000170e+00 6.617939999999999934e-01 1.374678399999999989e+01 6.822464000000000084e+00 1.089948399999999928e+01 4.381884000000000334e+00 1.532278400000000040e+01 1.250858400000000081e+01 6.958823999999999899e+00 4.227024000000000115e+00 1.514338399999999929e+01 6.702003999999999628e+00 1.628053999999999890e+00 1.426048399999999994e+01 7.766123999999999583e+00 5.582933999999999841e+00 9.131804000000000698e+00 1.221278399999999920e+01 1.032608399999999982e+01 3.439804000000000084e+00 1.482948400000000078e+01 6.342643999999999949e+00 8.659293999999999158e+00 4.506423999999999985e+00 1.457298399999999994e+01 1.308003999999999944e+00 7.175553999999999988e+00 2.910924000000000067e+00 6.786203999999999681e+00 1.357278400000000040e+01 1.309328400000000059e+01 2.726933999999999969e+00 7.151644000000000112e+00 1.217398400000000080e+01 1.259238399999999913e+01 1.371358400000000088e+01 2.654523999999999884e+00 6.937123999999999846e+00 5.347853999999999886e+00 1.095418399999999970e+01 3.204273999999999845e+00 3.232463999999999782e+00 9.656103999999999132e+00 1.280228400000000022e+01 1.550368399999999980e+01 4.273653999999999620e+00 9.455904000000000309e+00 1.929944000000000104e+00 2.220143999999999895e+00 1.006908400000000015e+01 1.138958399999999926e+01 1.427898399999999945e+01 1.092168400000000084e+01 5.621874000000000038e+00 1.110528399999999927e+01 1.250298399999999965e+01 1.075728400000000029e+01 1.528388400000000047e+01 5.107184000000000168e+00 3.467173999999999978e+00 6.161564000000000263e+00 4.338753999999999778e+00 8.390454000000000079e+00 8.883893999999999735e+00 8.138184000000000751e+00 1.033028400000000069e+01 5.627773999999999610e+00 1.398423999999999889e+00 5.242233999999999838e+00 9.618440000000000323e-01 1.141008399999999945e+01 3.208174000000000081e+00 1.140198400000000056e+01 3.214913999999999827e+00 3.966153999999999957e+00 4.728673999999999822e+00 1.253828400000000087e+01 9.731353999999999616e+00 1.210268400000000000e+01 1.481288400000000038e+01 3.310313999999999979e+00 6.146734000000000364e+00 5.979154000000000302e+00 1.423073999999999950e+00 1.567939999999999889e-01 2.673074000000000172e+00 2.867874000000000034e+00 1.316968400000000017e+01 1.464028399999999941e+01 1.288390000000000091e-01 5.806443999999999939e+00 4.462983999999999618e+00 8.706184000000000367e+00 1.805519999999999903e-01 1.301458399999999926e+01 5.824264000000000330e+00 1.011158400000000057e+01 7.186043999999999876e+00 5.333033999999999608e+00 4.548694000000000237e+00 1.139688400000000001e+01 1.144378400000000084e+01 6.857394000000000212e+00 1.325898399999999988e+01 1.338848400000000005e+01 4.994194000000000244e+00 3.600744000000000167e+00 1.261868400000000001e+01 9.930113999999999663e+00 3.265524000000000093e+00 1.067088399999999915e+01 1.473718399999999917e+01 7.670904000000000167e+00 1.293868400000000030e+01 3.766173999999999911e+00 4.706270000000000175e-01 9.189144000000000645e+00 1.883804000000000034e+00 3.843414000000000108e+00 1.138448400000000049e+01 4.288083999999999563e+00 3.849283999999999928e+00 8.594103999999999743e+00 1.342918399999999934e+01 6.997594000000000314e+00 1.306168399999999963e+01 1.065558399999999928e+01 1.045728399999999958e+01 9.651783999999999253e+00 5.712093999999999561e+00 1.324668400000000013e+01 1.350540000000000074e-01 1.398468399999999967e+01 6.239320000000000421e-01 1.058938400000000080e+01 3.707244000000000206e+00 6.127813999999999872e+00 6.984773999999999816e+00 1.543938400000000044e+01 7.482554000000000372e+00 9.961783999999999750e+00 1.179468400000000017e+01 7.909874000000000294e+00 1.130418399999999934e+01 1.575708400000000076e+01 4.061734000000000400e+00 6.218954000000000093e+00 2.601354000000000166e+00 4.000023999999999802e+00 1.067278400000000005e+01 8.458793999999999258e+00 6.342074000000000211e+00 1.557404000000000011e+00 7.009354000000000084e+00 1.144388400000000061e+01 7.882780000000000342e-01 1.275848399999999927e+01 6.799584000000000295e+00 1.091308399999999956e+01 3.816834000000000060e+00 8.548113999999999990e+00 1.341778399999999927e+01 1.123653999999999931e+00 1.584968399999999988e+01 1.454298400000000058e+01 1.628033999999999981e+00 2.700784000000000074e+00 9.719633999999999219e+00 5.582023999999999653e+00 4.652233999999999980e+00 6.018764000000000003e+00 4.780763999999999569e+00 6.229353999999999836e+00 5.411114000000000424e+00 8.729813999999999297e+00 2.567264000000000213e+00 5.666663999999999923e+00 1.019228400000000079e+01 1.157028399999999912e+01 7.984484000000000137e+00 1.002548400000000051e+01 1.522783999999999915e+00 2.804413999999999962e+00 1.773233999999999977e+00 1.172994000000000092e+00 1.111118399999999973e+01 1.129448400000000063e+01 4.789953999999999823e+00 1.359068399999999954e+01 1.178928400000000032e+01 3.349293999999999993e+00 4.415784000000000376e+00 1.174744000000000010e+00 1.063148400000000038e+01 1.258728400000000036e+01 1.581954000000000082e+00 1.045474000000000014e+00 1.578328400000000009e+01 5.735584000000000238e+00 9.697339999999999849e-01 1.494718400000000003e+01 1.513228400000000029e+01 6.430203999999999809e+00 1.498768399999999978e+01 1.520758400000000066e+01 1.458463999999999983e+00 5.735299999999999843e-01 1.175113999999999992e+00 7.595634000000000441e+00 3.665043999999999969e+00 3.219673999999999925e+00 1.681264000000000092e+00 9.393603999999999843e+00 1.294528399999999912e+01 7.582933999999999841e+00 1.503508399999999945e+01 4.091873999999999789e+00 2.382044000000000050e+00 7.930303999999999576e+00 7.375174000000000341e+00 7.822373999999999938e+00 5.894803999999999711e+00 1.304498399999999947e+01 1.214633999999999991e+00 3.835103999999999846e+00 6.181803999999999633e+00 1.235768400000000078e+01 1.446248399999999990e+01 1.215098399999999934e+01 1.476238400000000084e+01 1.199328399999999917e+01 1.259148399999999945e+01 1.431653999999999982e+00 5.125003999999999671e+00 1.226098400000000055e+01 4.680034000000000027e+00 1.266398399999999924e+01 1.571508399999999916e+01 8.349693999999999505e+00 2.403773999999999855e+00 1.051928400000000074e+01 1.441098399999999913e+01 1.394558400000000020e+01 1.380068400000000040e+01 9.810173999999999950e+00 9.542194000000000287e+00 1.582418400000000069e+01 1.412828400000000073e+01 4.843933999999999962e+00 7.829104000000000063e+00 1.049358400000000024e+01 5.695444000000000173e+00 1.622554000000000052e+00 9.388994000000000284e+00 1.570238400000000034e+01 1.299848399999999948e+01 1.411548400000000036e+01 2.976814000000000071e+00 2.834054000000000073e+00 4.468694000000000166e+00 1.189918399999999998e+01 2.161573999999999884e+00 8.555234000000000449e+00 1.416208400000000012e+01 1.477808399999999978e+01 1.766024000000000038e+00 8.737580000000000346e-01 9.374463999999999686e+00 3.418289999999999940e-01 3.215453999999999812e+00 4.137894000000000183e+00 3.981424000000000074e+00 2.713404000000000149e+00 1.506488399999999928e+01 3.383064000000000071e+00 1.115968400000000038e+01 1.237208399999999919e+01 6.400584000000000273e+00 8.380713999999999331e+00 3.226313999999999904e+00 2.629913999999999863e+00 1.035798400000000008e+01 2.471584000000000003e+00 1.105698399999999992e+01 9.343073999999999657e+00 1.368048399999999987e+01 3.969294000000000100e+00 6.455543999999999727e+00 7.878044000000000047e+00 1.492960000000000120e-01 1.131038400000000088e+01 7.532934000000000019e+00 7.955373999999999945e+00 1.695264000000000104e+00 1.278018400000000021e+01 8.817173999999999623e+00 1.431298400000000015e+01 9.224653999999999243e+00 1.029348399999999941e+01 1.524478399999999922e+01 1.089398399999999967e+01 1.486248400000000025e+01 1.006298400000000015e+01 1.101288399999999967e+01 8.191354000000000468e+00 1.136298400000000086e+01 7.868543999999999983e+00 1.290508400000000044e+01 1.493928400000000067e+01 6.857394000000000212e+00 7.183203999999999922e+00 8.830553999999999348e+00 1.407458399999999976e+01 8.940013999999999683e+00 8.965683999999999543e+00 7.270004000000000133e+00 1.190914000000000028e+00 5.630664000000000335e+00 4.879614000000000118e+00 1.292148399999999953e+01 9.827474000000000487e+00 9.811244000000000298e+00 8.222203999999999624e+00 7.179613999999999940e+00 2.063114000000000114e+00 7.986769999999999703e-01 1.329828400000000066e+01 1.299998399999999954e+01 1.568088400000000071e+01 1.501308399999999921e+01 3.885533999999999821e+00 1.534198400000000007e+01 5.012453999999999965e+00 2.699374000000000162e+00 1.361788400000000010e+01 1.252488400000000013e+01 7.119913999999999632e+00 1.355018399999999978e+01 1.138578399999999924e+01 2.250113999999999947e+00 7.062003999999999948e+00 1.559288399999999974e+01 8.367003999999999664e+00 1.421628399999999992e+01 1.051588399999999979e+01 4.450033999999999601e+00