-7.780456646784278564e+04
-7.779715391453979828e+04
-7.783126939269913419e+04
-7.785838261166554003e+04
-7.785778059073119948e+04
-7.782205984715487284e+04
-7.781020476461185899e+04
-7.786100294126303925e+04
-7.782872226701574982e+04
-7.782441193698508141e+04
-7.784719551743812917e+04
-7.785246579763825866e+04
-7.783883052230325120e+04
-7.784658975269083749e+04
-7.785888224439464102e+04
-7.783006543765091919e+04
-7.780570818696905917e+04
-7.783726381128685898e+04
-7.782441318785930343e+04
-7.782823087708013190e+04
-7.786670270734190126e+04
-7.781608882098476170e+04
-7.785293903459064313e+04
-7.786586167823785217e+04
-7.786692534814313694e+04
-7.786461033651346224e+04
-7.784537257516066893e+04
-7.780704362512937223e+04
-7.783741418608943059e+04
-7.781347938776643423e+04
-7.780951318049310066e+04
-7.785743405735005217e+04
-7.785742387805336330e+04
-7.784595453544963675e+04
-7.786253678620472783e+04
-7.781485365529420960e+04
-7.784142680367907451e+04
-7.785670351499607204e+04
-7.783204220239025017e+04
-7.778956258493351925e+04
-7.779990226415479265e+04
-7.783522978617955232e+04
-7.786990255695504311e+04
-7.784286034386169922e+04
-7.784180605534162896e+04
-7.786256655385236081e+04
-7.786488202732782520e+04
-7.777727763768822479e+04
-7.785327046583936317e+04
-7.784054884276728262e+04
-7.783051773060599226e+04
-7.784436472724282066e+04
-7.782681785774890159e+04
-7.785624859531086986e+04
-7.786206962722212484e+04
-7.782828969886002596e+04
-7.781081168619754317e+04
-7.784296479223086499e+04
-7.784200668415254040e+04
-7.787056076866571675e+04
-7.786995660467661219e+04
-7.782734612926396949e+04
-7.785927567352603364e+04
-7.785271756113431184e+04
-7.784336376760705025e+04
-7.781441087927573244e+04
-7.786525945019091887e+04
-7.779072207568545127e+04
-7.784001064264429442e+04
-7.782371578539766779e+04
-7.785424097864718351e+04
-7.785635765867811278e+04
-7.784939830905107374e+04
-7.781618051261980145e+04
-7.784945487368806789e+04
-7.783548448179638945e+04
-7.784196252746484242e+04
-7.785878316415405425e+04
-7.786741113308099739e+04
-7.784273608235470601e+04
-7.780145907076375443e+04
-7.782951966846785217e+04
-7.784518449090297509e+04
-7.786262009313456656e+04
-7.786881756906058581e+04
-7.784748286572127836e+04
-7.784017833390421583e+04
-7.781761622141241969e+04
-7.785881220056103484e+04
-7.786939255973686522e+04
-7.783226453036915336e+04
-7.782219921499329212e+04
-7.782811574654607102e+04
-7.781966742665763013e+04
-7.779841566603648243e+04
-7.785471019916582736e+04
-7.784594172425089346e+04
-7.781702228921695496e+04
-7.781827726912748767e+04
-7.783217207780289755e+04
-7.784482948184583802e+04
-7.784438623773264408e+04
-7.785557397645535821e+04
-7.785143313833934371e+04
-7.781053564755195112e+04
-7.786015382157193380e+04
-7.784313959155706107e+04
-7.785899819867055339e+04
-7.783484252467048645e+04
-7.783100200735342514e+04
-7.786978341650713992e+04
-7.784391181699644949e+04
-7.785659422072247253e+04
-7.784800365914023132e+04
-7.782670083447750949e+04
-7.784808367343767895e+04
-7.781890930424946418e+04
-7.784641711416229373e+04
-7.783086433425323048e+04
-7.784045889870382962e+04
-7.785742063642007997e+04
-7.782517720812278276e+04
-7.786365349874198728e+04
-7.783366269215194916e+04
-7.786241710902626801e+04
-7.783887466416963434e+04
-7.781881361509532144e+04
-7.782276569868190563e+04
-7.783818189158344467e+04
-7.786803386751630751e+04
-7.781901241428601497e+04
-7.786525120260420954e+04
-7.781889389209382352e+04
-7.784648888292044285e+04
-7.780176602974574780e+04
-7.785125262132118223e+04
-7.785370948843681253e+04
-7.784306469069607556e+04
-7.784152367032898474e+04
-7.782905082675773883e+04
-7.785282066931747249e+04
-7.780224138005556597e+04
-7.786828817885067838e+04
-7.779758532925856707e+04
-7.783111755738640204e+04
-7.783408189779944951e+04
-7.785273349166176922e+04
-7.781485530859994469e+04
-7.782030438507907093e+04
-7.782998978571637417e+04
-7.780893607036629692e+04
-7.782530694313073764e+04
-7.785829038605016831e+04
-7.783749844312836649e+04
-7.781832174902608676e+04
-7.779957874616049230e+04
-7.784354710628578323e+04
-7.783904704353409761e+04
-7.779806904685091286e+04
-7.779451413528261764e+04
-7.786764292307080177e+04
-7.784217674672490102e+04
-7.786882510958664352e+04
-7.782984837609698297e+04
-7.784684182269661687e+04
-7.786324685157573549e+04
-7.784582364785046957e+04
-7.785696830379393941e+04
-7.786350854626037471e+04
-7.782978581558105361e+04
-7.785705561461123580e+04
-7.785475408085605886e+04
-7.782878347559181566e+04
-7.783778144459951727e+04
-7.785687304304323334e+04
-7.780240503540089412e+04
-7.786110800883785123e+04
-7.786043364961119369e+04
-7.783795312901349098e+04
