6.869216883825003173e+00 1.054805443521631414e+00 2.411067615416476073e+00 5.918749900536885100e+00 2.772005277680904989e+00 -2.198612201431287549e-01 -6.627049799251992779e-01 -2.693394306247146819e+00 4.223428099206089081e-01 -1.857322911149563049e+00 4.421272446938553813e+00 5.296598934126889979e+00 -3.212950534731749741e+00 -1.837069815653336935e+00 -5.950659350288644012e-01 2.246656867515768319e+00 -3.777821431738515479e+00 -5.406912124380478524e+00 5.024697039035695978e-01 -6.263737465911508595e-01 -3.130143522591922967e+00 1.970642749688491790e-01 5.252522508989556638e-01 -4.339543241333030821e+00 1.660825821584977602e+00 1.363656665197940487e+00 2.720657257981744959e+00 -5.091298900831032342e-03 1.422777644616821879e+00 1.786400567244864623e+00 5.695098874020750657e+00 3.487801485392711953e+00 5.349041729642621812e-01 -1.724767105609090079e+00 -4.451970907001245870e+00 4.345586362702848482e-01 6.475694085842175207e-01 -1.991822985061315832e+00 1.069435021718646156e-01 -9.457340961975964078e-01 3.299178657020776395e+00 6.370450083000402941e+00 1.660950262988270199e+00 -2.698834760986141834e+00 2.123546781550021745e+00 3.935504116330621027e+00 1.049556278873648107e+00 4.227712071647541592e+00 3.345212720266932838e+00 -3.029982076899511156e+00 3.042617507319793635e+00 3.221438261189391472e+00 2.229975034605773399e+00 2.927937555096116196e+00 4.318465335874485334e+00 -1.697492841019646592e+00 1.193455792499398482e+00 -3.357300505668592838e-01 -7.996362891872329515e-01 2.138594421155619152e+00 1.330019896777583632e+01 5.760287657401838679e+00 -3.869516748241625059e+00 -3.851025886997812897e+00 -2.749576514509755931e+00 -3.103892042924583983e+00 -5.239426851065361213e+00 -6.352476527755403224e-02 -1.430790231170983029e+00 -4.941458595749742777e+00 -4.655841406821261685e-01 -4.476370163798087276e+00 2.733564196918303324e+00 2.587378458172555074e-01 -5.079759788889345318e-01 -1.902261684358473648e+00 1.308230875547907734e+00 1.042677548907339879e+00 -3.098848052325831048e-01 4.243004480294326197e-01 -1.853213259516854672e+00 2.446477365301348961e+00 -4.571853229791503992e+00 3.890841993844732283e+00 -1.244871689327627484e+00 3.376220741175832263e+00 -3.659924514973518783e-01 1.998085164438582861e+00 1.078552668502873457e+00 -1.685903335451832130e-01 -5.855708502693608430e-01 5.964311909203608986e-01 -3.769160412913477587e-01 -3.823919772569017161e-01 -2.445684437020863466e+00 3.313820062293310276e+00 1.479412367073222878e+00 -2.203166653947665754e+00 2.079503780756548625e+00 -2.841080540921853803e+00 2.617820322118539877e+00 -2.632699297342814937e+00 -1.223665742921065336e+00 9.941536291539796455e-01 2.974218444266159000e+00 5.175977162006323518e+00 8.272926197380253699e-01 1.381431731262481977e+00 -3.089458382804654013e-01 -2.054808847071718070e+00 -2.716793918052248902e+00 -1.569493030657575838e+00 -1.496839819961624796e-01 2.891790926984307397e+00 1.009816790907268391e+00 -1.088942497236465190e+00 1.525409920651471296e+00 -2.829978516553714574e+00 -3.244344735367396204e+00 -2.189992834480905870e+00 2.353444046602505280e-01 -2.377899353452896047e+00 -6.672018397260039979e-01 -3.490942345274165692e+00 -4.727808647137078601e+00 -5.517721537585213998e-01 5.202247667838628686e+00 -2.488763274049156315e+00 2.703922974562924519e+00 4.510659426832651420e+00 3.128904250765743855e-01 9.462344329141409993e-01 1.662001844268161221e+00 -2.145554912209214571e+00 -3.357152924334935840e+00 5.332917311944069816e+00 -3.114153830710159720e+00 9.861292155242988855e-01 4.121992928902288078e+00 3.401494687340446799e+00 2.000572449842412670e+00 -1.287174567357701749e+00 1.743413775717354897e+00 -3.323423133394515006e+00 -3.260034122375098153e+00 7.322363569046630438e-01 1.160894825152714471e+00 -1.545352426860139960e+00 -2.651995428163306245e-01 2.378400204390115569e+00 -7.615232812151295771e-01 1.267892320495428882e+00 -6.186726749217612564e+00 3.346928160437943056e+00 -4.404263055458734755e+00 2.188619865279288312e+00 2.039873307573218941e+00 -7.213107102279679994e-01 -1.289346635487901738e+00 8.786751950665294686e+00 -1.965909862597970736e+00 -1.800842454895590805e+00 1.370356960590105588e-01 4.327962991737362763e+00 -3.021961777035228613e-01 -6.064934610841283824e-01 -2.001825091406135848e-01 -1.298636546198174813e+00 1.580531805882718910e+00 -1.783957504819064344e+00 -1.153010279546569317e+00 2.405822564533890873e+00 8.043707189397781843e-01 1.874925199067383863e+00 1.291269820811516145e-01 3.579744656261057312e+00 1.038683082705778915e+00 8.454039861238620279e-01 -2.334839542589570716e+00 -8.532813326405604970e-01 2.702011616314829112e+00 -1.414790769096399004e+00 3.743002007188270808e-01 2.958688979888308257e+00 -3.773764230614633952e+00 -2.419359938017707989e+00 -3.306455393789351049e+00 -5.045292091280638047e+00 3.979839708688034161e+00 2.227197728741377336e+00 -3.800331441776277686e+00 -2.374194393491227295e+00 -3.109679082398369765e+00 1.467328695436961039e-01 6.372542961146689500e+00 5.696582914888117521e-01 -2.341060584312856463e+00 1.764341014518195694e+00 1.353496178885293055e+00 2.474393377292896545e+00 4.287259340005801889e+00 -6.565441020208606648e-01 2.202241056733092339e+00 -1.174041390923711736e+00 9.901298523739572310e-01 -3.024305080650124378e+00 -2.082863698645451844e+00 3.444357551685337526e+00 -6.387588543869587632e+00 2.871025667696017525e+00 -1.953373676767917066e+00 2.918439899233238766e+00 2.010650146626423052e+00 3.559762555060431932e+00 7.678487097353924318e-01 -1.447780596485835902e+00 -1.155909969931559145e+00 -1.838628932739219124e+00 4.017040489183106855e-01 -3.010690059844417510e-01 1.381110343340754998e+00 -3.270269684906260910e+00 2.297902557300650628e+00 -4.370247872043820259e+00 -2.641190623345180732e+00 -5.656874794382898974e-01 8.450116357490178309e-01 -3.852902278240024181e+00 -2.381754980072271266e+00 -1.744848965620619641e+00 -1.822810476342151764e+00 9.925831992132526649e-01 -9.017558872091434585e-01 -2.362499472685086199e-01 1.253713713830181486e+00 -4.054690698547923411e+00 4.882097475275745779e+00 -6.131803353166823456e+00 -8.626588151317456266e+00 2.436158499020874668e+00 -3.656714749521646546e+00 4.902588140723712407e+00 2.616231380233521864e-01 -4.960686849441165586e-03 -1.233844741178004023e+00 -2.771577446079501739e-01 7.247385052459398569e-01 1.772152540788524133e+00 -2.219535840687405059e+00 -2.156502670374924324e-01 -1.800250586898938243e-01 -1.449326858054848843e+00 -7.109608364408054548e+00 -2.812258472101372586e+00 -6.188219531836449683e+00 -1.124817102611324060e+00 -1.470033496186216038e+00 4.051531840942853790e+00 -3.155697719024283199e+00 2.779398742542650846e-01 -1.045024452066959375e+00 1.487683606626790001e+00 6.370587379920564786e-01 2.048514271791940899e+00 1.186056671210230062e+00 -3.842736135499954742e+00 6.760356366977619824e-02 -1.476302874652929420e+00 -3.650270536025513213e+00 2.350509903432306036e+00 2.795169890637640431e-01 7.133460490406948296e+00 -8.959832459142511030e-02 -1.416986491377637991e+00 -5.629118705021203262e+00 -4.106543168729026583e+00 -1.172214879086952433e+00 -3.079821887359590268e-02 -1.124814531507950077e+00 3.094065285829858070e+00 1.456927039627849751e+00 5.579871276778450628e+00 2.631159206421898600e-01 -2.359135441030784985e+00 9.392996528942837431e-01 -1.201850136482504006e+01 -1.917938215849306349e+00 4.126142689747627768e-01 1.394220913664518946e+00 3.140278812091507055e-01 4.890041670480163916e+00 2.381995635348060247e+00 4.704291278797456122e-01 2.393265295656172409e+00 -1.516523673170887543e+00 1.751877333803283809e+00 2.644904839278995556e+00 -6.705581580701837074e-01 -3.032833944761748057e+00 -6.132468754719966775e+00 -1.752104105120854127e-01 6.811505897496321627e-01 -2.528861173825845743e+00 -2.357312528738749524e+00 -9.516872289493306658e-01 2.377658698177106955e-01 -1.712206751407322480e+00 -2.283196874443770952e+00 -9.590164162267313108e-02 -9.353756349251654001e-01 1.330242605751823792e-01 -2.834421897404344026e+00 6.766685909263281395e+00 5.550051619848929363e+00 -3.868253822264406949e+00 5.206232363847368427e-01 1.178325363365164247e+00 -1.133840647012069658e+00 -1.659679623700930362e+00 1.583797107167465468e+00 3.495665462171866356e+00 3.257334978053265218e+00 -1.671785406826206799e+00 -3.173497467681213102e+00 3.394760453383747212e+00 2.431317625588653164e-01 -2.574166586375862487e+00 -1.268171285211488097e+01 -4.399565649594773475e+00 3.565024575225284043e+00 3.475973895652482160e+00 -2.496170622869120947e+00 -6.872861165747050194e+00 -6.574273274518340315e+00 -3.195904633584022658e+00 7.168493316537219440e-02 1.387547357747441479e-01 1.943301636411329525e-01 -1.258344271006424653e-01 3.221080877820432065e+00 -4.812236482843759156e-01 3.100920361645126633e+00 -2.552094178132324309e+00 -3.713853408239315090e+00 1.691681118953471952e+00 -4.679043043666579194e-01 -2.587147058868911831e+00 -3.616668271812433222e-01 5.314023301691244150e-01 -5.311215656807035668e-01 -4.526808012902917011e-01 -2.179587579127071351e+00 -2.034858627552928179e-01 7.231228238858337098e-01 3.528237742373395935e+00 5.365100841315477709e+00 1.912175858967909203e+00 -3.065460218134127057e+00 3.030204220231008883e+00 2.410779651838608484e-01 3.790608557257853506e-01 -3.985275021220282099e+00 -1.666890540223135320e+00 -4.413978226667037319e+00 1.405260203110336503e+00 4.668477351462219538e+00 -4.608390151395457934e+00 -1.763000441219087611e+00 7.624606540831555535e+00 5.542234951371852958e+00 5.769667042509520449e+00 -9.247065843651772754e-01 -3.488702914235572106e+00 -1.641102887604432681e+00 3.383777728212152835e-01 -1.041961753728069429e+00 7.105074480718667207e-01 -5.033582772295605023e-01 4.309638737992173674e+00 2.615646197105640614e+00 -1.092265391236785232e+00 -1.677655750049304340e+00 -2.356044460554783004e+00 7.531538255126828396e-01 -1.601504296102938263e-01 4.631117162557969458e+00 4.331653039299463437e+00 -2.126506635753958818e+00 4.428569238313444068e+00 -6.538913918259594560e+00 1.946884726073079941e+00 -6.835268034877133303e-01 -2.809089844303482297e-01 -5.087006186638109106e+00 -1.333633891101887459e+00 1.018382164686800317e+00 1.245321632418045166e+00 8.348928013110262780e-01 2.810173821485882684e+00 1.990918470894407433e+00 7.646759681721031487e-01 -2.665720492193412117e+00 9.655341632793558171e-01 5.247051201010076715e-01 -1.479091493372170607e+00 -6.563697812121159769e-01 -4.643215746593799764e+00 -2.474523989344286523e+00 -1.053108001074237965e+00 5.550405403673166482e-01 4.017789194485562376e+00 1.450391294851608892e+00 -2.341668907371101671e+00 -1.140794967417567918e+00 1.081722838962789091e+00 -5.820936900666117131e-01 1.883109535326915829e+00 1.360409361636810255e+00 2.057636546562241264e+00 4.506925156292520995e+00 2.950518527586995177e+00 5.548101695050225990e-01 -1.199858868341550755e+00 1.204886403878711043e+00 -1.689327530925081033e+00 -1.084116536203811876e+00 -3.127397584188686963e-01 -2.061396528136110184e+00 3.409987041784161566e+00 -2.499714631759589079e+00 1.701270306096457574e+00 -9.676717786243466124e-01 5.124404427872291112e-01 3.022324816831611471e+00 -1.877341007797421968e+00 2.366258425817605815e+00 -1.305535330770798641e+00 -2.081642424542889114e-01 -3.442422025065529301e+00 1.477484039542860783e+00 4.753442547774027638e+00 4.959776678846833931e-01 -1.904771595471992818e+00 -2.713842291379107596e+00 6.822967876336795134e-01 2.838750092823826843e-01 -1.798380366304824118e+00 -8.276150361011018752e-01 -4.168709877204530123e+00 1.553334674394490023e+00 1.845697410134515271e-01 3.103501749432438506e-01 -1.403424435301431794e+00 4.469012694383574846e+00 -1.091942460653034103e-01 7.347520787118073216e+00 -1.948443843158961908e+00 1.007152613591320162e-02 -2.384460809262875625e+00 8.104020132340765681e-01 4.285759872518192459e+00 -3.325864138937615788e+00 -1.427476593142808529e-03 -1.245596740479043563e-01 1.606909783836049765e+00 7.983286260113099386e-01 -1.079655671850240806e+00 -1.450345014990880088e+00 -6.796277252213208442e+00 -3.157267120523660431e+00 -1.087711967161756776e+00 1.625608904453140768e+00 1.204402522223758931e-01 9.872985533387106383e-01 -4.098809289780587228e+00 6.627301767382627329e-01 -6.338443445541113164e-01 1.965723714713706771e+00 1.843305769776191205e+00 4.371816245101848075e+00 -7.897591384663802394e-01 2.060248787590038599e+00 -6.240587251133664637e-01 5.546137372072630356e-01 1.035426008951828569e+00 4.353716191570856098e-01 -1.407532544272115382e+00 7.201855953915858866e-01 1.333121213089148327e+00 -2.125288961196119875e+00 -3.809614667617778228e+00 -1.703807985126414293e+00 -5.418548938250371538e-01 3.039089953490917928e+00 7.613278773587195403e-01 -1.561848111885870471e+00 -4.594047508334960228e-01 6.867946758758337600e-01 -2.520853729478432226e-01 4.540262596858097410e+00 -5.736944095650285957e-01 -2.395435306903672956e-01 1.483083902691032741e+00 8.759846896520330217e-01 8.874903772498611287e-01 1.838450498165076441e+00 -5.022007664906683599e-01 2.701972535543546994e-01 -2.334020389054672684e+00 2.249468626165374019e-01 3.877371983269309208e+00 5.087458186611225841e+00 3.974962839808578785e+00 -2.023776657791104938e+00 4.419781721202415525e+00 -8.644373501795493686e-01 -6.502377510876315547e+00 1.830385461102089550e+00 3.347415641637618844e+00 1.288567591165635129e+00 -1.137381570578489320e+00 -4.845842346601562767e+00 -1.082043249865233925e+01 2.377330111165933513e+00 -7.370731165714862199e-01 8.250104569613585070e+00 -1.708117668601605021e-01 -2.313977609814424685e+00 -2.042301971820125850e+00 9.588235834736952290e-01 -4.722551254958299444e-02 -3.039738899982469267e+00 -1.019335529817811281e+00 -2.536753432742112624e-01 -2.352560615483262119e+00 3.989679835520304252e+00 1.591654913298522933e+00 -2.827525169714419473e+00 3.966574872161841014e-01 4.455156504081404095e-02 -2.341270386348159871e+00 4.466409195107248209e+00 -3.112591114079554355e+00 -1.229106711880735281e+00 -1.496685553759195264e-01 -5.291162593153293514e+00 -4.785024438955962189e+00 -8.799411035236616163e-01 3.525602361415233865e+00 4.064556536413931553e+00 -5.013332762123428044e-01 -6.179646958967471154e-02 2.301723731134816542e-01 1.886315701234065056e-01 -7.678430533079700915e-01 -6.732773569983319106e-01 -7.083225244247975949e-01 3.299110779891707423e+00 7.740239858186245270e-01 2.999686251625158562e+00 1.500768980137490383e+00 4.263061657713467234e+00 1.953448752986432835e+00 -2.399679170132494210e+00 -9.308371232497048009e-01 -3.139575358208430700e+00 -6.414815500156951789e-01 -2.287826403178665036e+00 4.275058426055695193e+00 -2.826251445103030946e+00 1.102699957169081424e+00 2.022933850105167686e+00 2.650673366808489639e+00 -8.990675415214810506e-01 1.565063019544490563e+00 1.025989031128573092e+00 -5.605900098893616956e-01 -1.110221977199518317e+00 -4.780219046750299405e+00 3.008516963272868328e+00 1.204697170670398165e+00 2.179801494927772865e+00 -2.489144311569155388e+00 3.322211115264098069e+00 3.038244060480932429e+00 5.321289754046323317e+00 2.472206396763128922e+00 -4.771525632022751928e+00 -1.559166451066980263e+00 -4.221023089110221171e+00 -1.364981297656130632e+00 2.084891784986718566e+00 -8.587012185525653152e-01 3.185259237175073643e+00 -1.375794330005052357e+00 5.702244484517260403e-01 -1.799213403797940813e+00 -1.391546966155750020e+00 2.648386627467817611e+00 7.167192338230068405e-01 9.156197908214357417e-01 3.169363647676791462e+00 6.222610096343942354e-01 -2.646274208935890382e+00 1.073735963442365993e+00 -5.601692231112028963e+00 5.469698468769073063e-01 9.131520458032468257e-01 -2.908412081854680586e+00 -1.275917248345784349e+00 -2.225807276036817495e+00 3.842988617851263555e+00 6.200586024843831590e-01 -5.056162202124458993e-01 -2.087043284289927580e+00 -3.355176260061145666e+00 -1.888576729540998977e+00 2.552981723016965354e+00 7.885988509358443643e+00 -1.809647969730237005e+00 4.611778865642147451e+00 -1.411306924024877674e+00 2.426912811288631122e+00 -3.959581985205734789e+00 1.439937702754346516e+00 -1.221752327790271098e+00 1.164982365296407391e-01 -7.959503553905298290e-01 -3.386971038602432649e-01 -2.372085574504023242e+00 2.891933366111216763e+00 1.359641630169388771e+00 -6.901093423453577014e-01 -4.526752477070042247e+00 1.183149267515118508e+00 1.555841500183960946e+00 -8.381832994088364019e-01 -4.253428761813127679e+00 1.024985786592109982e-01 3.561587524235166669e+00 -1.108133212818630087e+00 4.485783487470303976e-01 3.455674520295528129e+00 -1.159576363342621264e+00 8.255108450999706360e-01 3.271150544922129644e+00 -3.612132845461021313e-01 -8.070662637168872777e-01 -1.070966370888091213e+00 -1.637556307610590622e-01 1.022412112114920113e+00 -1.143635008204285208e+00 1.777691211676399208e+00 2.177604229984509310e+00 -4.827407535411299300e+00 -6.410696078331424630e+00 -2.003473682889427288e+00 5.599498051492814099e+00 -4.976486793893941218e+00 -4.387469122441642000e+00 -2.260426668744578982e-01 4.802101193344175678e-02 -1.543813878601248524e+00 -2.682776677754634687e-01 4.565189958287922067e+00 -2.589575723115818295e+00 1.134937479711339625e+00 1.982646202899490673e+00 1.204713625731990589e+00 -1.640561413233907251e+00 -5.179076370013120656e-02 -3.167231688759223118e+00 3.614602133141234575e+00 1.364160601459208366e-01 7.098081079541886940e-01 8.265048336642880633e-01 2.853983880313688104e+00 2.452027349044068938e+00 3.471020407892487225e-01 -1.655386395287332002e+00 -3.608414001541133231e+00 1.803421271579528362e+00 -1.761006293442355597e+00 2.915950042726034752e+00 -3.400308380243767914e+00 -1.199447491801739929e+00 -4.352715003917092318e+00 3.024995679016331707e+00 -1.169465341138993253e+00 -2.078386379230288128e+00 -2.776924826876365326e+00 3.235381869006272559e+00 -2.156045013974385027e-01 9.927153539266669879e-01 2.303606293025124874e+00 -1.180432125469669691e+00 -3.836621537456345266e+00 1.887541089102026115e+00 4.470465882010455694e+00 -1.894314918050682195e+00 2.013889222656756850e+00 -1.418221649438419218e+00 -1.597091254272120064e+00 1.621425205043267037e-01 4.056068809956289378e+00 -6.316419374041003509e-01 -1.305585724396925440e-01 8.248562421809969847e-02 -6.660419635720079334e+00 -1.565773672517013271e+00 4.055447117160499992e+00 -5.720659755321883644e+00 -1.345226996214424986e+00 -3.114882995626973905e+00 4.710181162406194666e+00 4.547395866058413283e+00 -1.802960529854940597e-01 -2.044518777149030520e+00 5.313791902387599020e-01 -6.762670360014054749e-01 6.386106559884920097e-02 1.441895340863170172e-01 1.382353728932332326e-01 -9.742208931381314274e-01 2.885407905748471169e+00 -3.314072544644619978e+00 8.475806822401349416e-01 4.563698718331107962e+00 -1.138367845832685576e+00 -2.985681451547981258e+00 -8.713834430542515275e-01 -1.521210280400679737e+00 -1.572138181808558466e+00 -5.694490036741831629e-01 2.704491702629212568e+00 4.415852561026549772e+00 -2.740185302326554773e+00 -1.674272692230036830e+00 1.010320212947861895e+00 1.292893215481743852e+00 4.487824943549114098e-01 -2.826870566795445683e+00 3.969011763939544135e+00 -1.952636798540981378e+00 -5.246660393297256642e-01 1.191935241964123815e+00 -2.459773055068027681e+00 2.048830517506920135e+00 5.539802173359548165e-01 4.076880349105307388e+00 6.036577911731463963e+00 2.755293105751099425e+00 1.556555752701207274e+00 -1.106402346027376860e+00 2.875656739092935066e+00 -3.040955546098958795e+00 -7.014288820589212881e-01 -7.321360838730841536e-01 -2.196409794281276806e+00 -1.955879474116038741e-01 -1.235866142650498434e+00 -3.884532506165387034e+00 -8.032841706540035931e-01 3.374198311261987993e+00 9.698479605199447073e-01 -2.826700873972773920e+00 -5.582276286874318316e+00 1.965319023042668034e+00 1.368905829845923572e+00 5.899211571778580909e-01 -1.185023087653956031e+00 2.601343149037100400e+00 -1.407274405493384339e+00 -6.266288000458334340e-01 -1.827559304273590701e+00 3.436166016336359430e+00 3.162359962086516152e+00 -1.437221074929572184e-01 -1.449873988852797169e+00 -1.265158723388387418e+00 -6.633215305142404761e-01 -5.304196544596517349e+00 2.760029592386343378e+00 -1.396629009084435324e+00 3.362500819352473247e+00 9.095309038115639844e-01 -7.507544718442374920e-01 1.859480066880194737e+00 -2.724864097321983536e+00 -2.245730241859844878e-01 6.396380688966690764e-01 -2.716661763338834579e+00 1.748639286214299426e+00 3.625638851483678149e+00 -3.065416509376772236e+00