-6.341136714560143872e+01 5.482041750136217750e+00 2.541399078681341095e+01 5.482041750136217750e+00 -8.278037833340388829e+01 -2.085914971570849019e+01 2.541399078681341095e+01 -2.085914971570849019e+01 -6.381658311103470993e+01
-3.105355076250683055e+01 -2.586900924108241639e+01 2.099294632659528048e+01 -2.586900924108241639e+01 -8.569735841294877332e+01 2.212292391881045361e+01 2.099294632659528048e+01 2.212292391881045361e+01 -9.629806038552635528e+01
-7.014651742872717932e+01 1.881592633395558778e+01 -2.059980998762414828e+01 1.881592633395558778e+01 -6.590941067003799958e+01 -2.941727039063432869e+01 -2.059980998762414828e+01 -2.941727039063432869e+01 -6.986379359062549099e+01
-6.605394840918540922e+01 8.682632126554036489e+00 -5.146522316171400213e+00 8.682632126554036489e+00 -8.243451415284260975e+01 -2.990483350839741306e+01 -5.146522316171400213e+00 -2.990483350839741306e+01 -8.521166873578343370e+01
-5.421125263909737413e+01 1.426563884040974450e+01 8.212886329190936863e+00 1.426563884040974450e+01 -3.711442736828578148e+01 3.736099526270088944e+01 8.212886329190936863e+00 3.736099526270088944e+01 -4.959529511358964271e+01
-5.774460060774019610e+01 4.259409828171123458e+00 -9.593145203591790349e+00 4.259409828171123458e+00 -6.510424865334931610e+01 -2.752993519561909253e+01 -9.593145203591790349e+00 -2.752993519561909253e+01 -3.103233673802812120e+01
-9.688820738439150659e+01 -2.728921053794610696e-01 1.292961300194648722e+00 -2.728921053794610696e-01 -1.145553867759604856e+02 -3.097700745701390446e+01 1.292961300194648722e+00 -3.097700745701390446e+01 -8.575975066664257440e+01
-7.680495836987913094e+01 -7.947739975277413604e-01 -3.154263552512720992e+01 -7.947739975277413604e-01 -5.274625032278529346e+01 -3.066470826353908663e+01 -3.154263552512720992e+01 -3.066470826353908663e+01 -5.751729908112659473e+01
1.698637778048298586e+01 1.585615240963490535e+01 -1.210914718032208981e+01 1.585615240963490535e+01 -3.849105797981959398e+01 -3.980128748379485160e+01 -1.210914718032208981e+01 -3.980128748379485160e+01 -6.215430075087630968e+01
-3.587819626263765826e+01 2.093280035938716566e+01 1.394066098385724484e+00 2.093280035938716566e+01 -4.571860641040625062e+00 2.897753341615870326e+01 1.394066098385724484e+00 2.897753341615870326e+01 -5.316030695940966666e+01
-4.869768539798288032e+01 -3.762543212093457612e+01 -2.703483283284277006e-01 -3.762543212093457612e+01 -5.969862418771533186e+01 3.380218629860335255e+01 -2.703483283284277006e-01 3.380218629860335255e+01 -2.469973710825605551e+01
-6.406132839902333842e+01 6.885808214033986019e+00 -1.998881811046343326e+00 6.885808214033986019e+00 -7.870606371554877967e+01 -6.734782070793875697e+00 -1.998881811046343326e+00 -6.734782070793875697e+00 -4.348366950524207653e+01
-6.084350668172871224e+01 8.734782430241796902e+00 4.456872368781326088e+00 8.734782430241796902e+00 1.412686282547979344e+00 -1.734108033644833213e+01 4.456872368781326088e+00 -1.734108033644833213e+01 -5.822377496591920476e+01
1.110376463662509749e+01 6.301235866413984255e+00 4.389373164370289793e+00 6.301235866413984255e+00 -8.697033704305358981e+01 -3.734759909977887560e+01 4.389373164370289793e+00 -3.734759909977887560e+01 -3.485040469196529500e+01
-7.710079372675676268e+01 -7.726372661547890708e+00 1.180940416811355931e+01 -7.726372661547890708e+00 -9.218676009121705306e+01 -1.614800696312247652e+00 1.180940416811355931e+01 -1.614800696312247652e+00 -8.190544411995036000e+01
-2.553841419376123412e+01 5.279579663709560222e+00 1.655741771846198773e+01 5.279579663709560222e+00 -2.216929138834527535e+01 3.729736074412082303e+01 1.655741771846198773e+01 3.729736074412082303e+01 -7.293718225459804216e+01
-1.029447946424678975e+02 1.889210884872589347e+01 -1.013079386082480582e+01 1.889210884872589347e+01 -1.302747432013676985e+02 3.033543078664962067e+01 -1.013079386082480582e+01 3.033543078664962067e+01 -1.290362250071548544e+02
-7.098609416709062714e+01 -6.822993582565732851e+00 2.618281674331955955e+01 -6.822993582565732851e+00 -6.499571673299763575e+01 -4.172873260494676551e+00 2.618281674331955955e+01 -4.172873260494676551e+00 -5.155401154691716670e+01
-5.180728755012992792e+01 6.953213184473818309e+00 -1.563016459510219747e+01 6.953213184473818309e+00 -4.260190053239193730e+01 3.662861491867058228e-01 -1.563016459510219747e+01 3.662861491867058228e-01 -2.045759617904544214e+01
-7.592554614730131846e+01 -2.516826472749551513e+01 2.557966097662567773e+00 -2.516826472749551513e+01 1.630919529077185715e+01 -2.262834337961363129e+00 2.557966097662567773e+00 -2.262834337961363129e+00 -1.189316099776341451e+00
-6.222250643239583923e+01 -1.487556218407228403e+00 1.384615826408566441e+01 -1.487556218407228403e+00 -5.297075876741286216e+00 -3.656412113272756947e+00 1.384615826408566441e+01 -3.656412113272756947e+00 -4.267305809201126010e+01
-4.079114373433777274e+01 1.205825127812281128e+00 1.558790660280337548e+01 1.205825127812281128e+00 -1.103268488703510286e+02 -4.663725131316660111e+01 1.558790660280337548e+01 -4.663725131316660111e+01 -7.830718574360621176e+01
-4.293130784293767022e+01 3.171497273984844512e+01 -3.198608640929111679e+00 3.171497273984844512e+01 -4.334741375770089888e+01 -1.078880327268224093e+01 -3.198608640929111679e+00 -1.078880327268224093e+01 -5.996144350365381825e+01
-7.076946159559751948e+01 -1.304367766128943096e+01 3.990203472543302610e+01 -1.304367766128943096e+01 -9.697795880442119199e+01 3.881121236056242907e+01 3.990203472543302610e+01 3.881121236056242907e+01 -4.587507426654978104e+01
-6.795328261824231220e+01 2.599391209778892264e+00 5.139152497392182717e+00 2.599391209778892264e+00 -2.838283404206741523e+01 8.894180167682725013e+00 5.139152497392182717e+00 8.894180167682725013e+00 -8.724388587896646285e+00
-4.826636436975277178e+01 -1.967528558264654004e+00 -6.992290311161624139e+00 -1.967528558264654004e+00 -5.258140796085124435e+01 -2.537048052063473946e+00 -6.992290311161624139e+00 -2.537048052063473946e+00 -7.394939650028244671e+01
-7.684365912918763586e-01 -2.887299605269921443e+01 -5.305673041759938258e+00 -2.887299605269921443e+01 -3.258053840145458935e+01 1.843415994728813123e-01 -5.305673041759938258e+00 1.843415994728813123e-01 -7.202293607054871316e+00
-9.773065815779926879e+01 1.627645235098262333e+01 -1.538385738261435698e+01 1.627645235098262333e+01 -6.527666249720898861e+01 1.222316582351038505e+01 -1.538385738261435698e+01 1.222316582351038505e+01 -5.826886159930431575e+01
-4.810982327921504265e+01 1.470223888576586901e+01 2.625227116974762254e+01 1.470223888576586901e+01 -1.678650356346542338e+01 1.659661521927398553e+01 2.625227116974762254e+01 1.659661521927398553e+01 -7.335610844421604781e+01
-1.061586397286298507e+02 -1.708808678538364134e+01 -3.855081744852781611e+01 -1.708808678538364134e+01 -9.477136928716137731e+01 1.609752629772764010e+01 -3.855081744852781611e+01 1.609752629772764010e+01 -3.579462628291624782e+01
-9.058004248989090001e+01 2.578048139483772427e+00 -1.742086623885830354e+00 2.578048139483772427e+00 -6.080412947575425875e+01 5.508046773569471810e+00 -1.742086623885830354e+00 5.508046773569471810e+00 -6.231657304294764543e+01
1.167697463791169898e+00 2.071078619458236680e+00 3.967518231559970410e+00 2.071078619458236680e+00 -2.257361661404797459e+01 -9.981548498326844321e-01 3.967518231559970410e+00 -9.981548498326844321e-01 -4.372527791055980373e+01
-8.095659346167833803e+01 8.627327470167644563e+00 2.106462190376158361e+01 8.627327470167644563e+00 -4.621865094335330326e+01 1.007437371748479471e+00 2.106462190376158361e+01 1.007437371748479471e+00 -1.846986699827481093e+00
-4.153560710920909571e+01 -7.583634105445889340e+00 -1.442648598962484741e+01 -7.583634105445889340e+00 -1.750495914326353741e+01 -2.193399725876186324e+01 -1.442648598962484741e+01 -2.193399725876186324e+01 -9.092764714189202380e+01
-6.956756703371038952e+01 -4.688514521531095824e-01 -1.122305909318672867e+01 -4.688514521531095824e-01 -7.870371266170764102e+01 2.089968274343780053e+01 -1.122305909318672867e+01 2.089968274343780053e+01 -5.348844231526292958e+01
-9.098113484401726225e+01 -3.039104360148792239e+01 5.238042202005498638e+00 -3.039104360148792239e+01 -4.465875060306667876e+01 8.086218252741163681e+00 5.238042202005498638e+00 8.086218252741163681e+00 -3.056746340401532080e+01
-3.475407768580001999e+01 -1.233558929300774842e+01 -5.659271938636446286e+00 -1.233558929300774842e+01 -1.198764031255504818e+02 -1.286298192671407747e+01 -5.659271938636446286e+00 -1.286298192671407747e+01 -8.971797777691168108e+01
-3.241072913679845868e+01 1.069559503630288333e+01 -2.915682912505078050e+00 1.069559503630288333e+01 -8.144345386944873155e+01 2.450398472580891251e+01 -2.915682912505078050e+00 2.450398472580891251e+01 -5.647477348074192349e+01
-1.454740566900413690e+01 -8.540196897068048187e+00 1.214257775378887239e+01 -8.540196897068048187e+00 -1.349194602084596681e+02 -1.618095404765967160e+01 1.214257775378887239e+01 -1.618095404765967160e+01 -1.037791009432880429e+02
-1.017444870464378255e+02 7.845584191701125754e+00 1.314508075385316666e+01 7.845584191701125754e+00 -1.015940467468716548e+02 -1.155158183567553465e+01 1.314508075385316666e+01 -1.155158183567553465e+01 -8.902624887847463242e+01
-6.046255531811316786e+01 1.460194923495007835e+01 7.770512887103705246e+00 1.460194923495007835e+01 -8.406798506107986668e+01 -2.111094190469053444e+01 7.770512887103705246e+00 -2.111094190469053444e+01 -8.239382838008714316e+01
-9.672812845393475811e+01 -3.858805302737063236e+00 -1.326231062272925421e+01 -3.858805302737063236e+00 -1.094063240211106915e+02 -8.309239509718000960e+00 -1.326231062272925421e+01 -8.309239509718000960e+00 -8.247946054542502736e+00
-6.073246178058663958e+01 -8.697451494986371046e+00 1.673100106549563293e+01 -8.697451494986371046e+00 -5.938887093534782480e+01 1.026372198181433681e+01 1.673100106549563293e+01 1.026372198181433681e+01 -4.859664966079229487e+01
-3.688903914362175840e+01 -3.030657868070649741e+00 -2.838896553338703654e+01 -3.030657868070649741e+00 -5.125984171265505296e+01 1.048238007575255537e+01 -2.838896553338703654e+01 1.048238007575255537e+01 -8.528901779874773581e+01
-6.928689659290481018e+01 2.714023017228662482e+01 7.833733137666929025e+00 2.714023017228662482e+01 -8.226110861312113798e+01 1.509795761191808872e+01 7.833733137666929025e+00 1.509795761191808872e+01 -4.436719857742194506e+01
-6.100664896611813504e+01 2.752826359754372376e+01 1.164039768501336347e+01 2.752826359754372376e+01 -5.548443213174436295e+01 1.875038757752969332e+01 1.164039768501336347e+01 1.875038757752969332e+01 -7.837447060205417415e+01
-2.267041570951325369e+01 2.780819844282417108e+01 3.443296561733783534e+01 2.780819844282417108e+01 -6.782023812328877455e+01 4.012502461569292223e+01 3.443296561733783534e+01 4.012502461569292223e+01 -4.546401954550079694e+01
-7.930333587567278641e+01 1.164084010028721927e+01 6.401525409768771624e+01 1.164084010028721927e+01 -1.082097978099368731e+02 4.630491921199491401e+01 6.401525409768771624e+01 4.630491921199491401e+01 -5.999385170687303059e+01
-8.847036573494962397e+01 1.995717722935640026e+01 -2.895901520047663436e+00 1.995717722935640026e+01 -6.280740377297401977e+01 -9.055065947274378857e+00 -2.895901520047663436e+00 -9.055065947274378857e+00 -4.098983337164355589e+01
-1.180618926208231727e+02 -1.180897434096187126e+01 1.478386931879657240e+01 -1.180897434096187126e+01 -5.494096289499733388e+01 1.808763118520544566e+01 1.478386931879657240e+01 1.808763118520544566e+01 -7.884944032388828816e+01
-1.067254294615144090e+02 2.680365398938308275e+00 1.338892580356131567e+00 2.680365398938308275e+00 -8.567059456186018451e+01 1.907911533706409912e+01 1.338892580356131567e+00 1.907911533706409912e+01 -1.439983277049003902e+02
-5.795421972405460309e+01 3.744475762683521669e+00 -1.312251498296945407e+01 3.744475762683521669e+00 -8.737991732661578226e+01 1.795573954593585597e+01 -1.312251498296945407e+01 1.795573954593585597e+01 -1.053937659505047719e+02
-4.350279337933275770e+01 7.256989992962726177e+00 4.106670130324469881e+01 7.256989992962726177e+00 4.157695285710914845e+00 3.007772714327710517e+01 4.106670130324469881e+01 3.007772714327710517e+01 -6.428071228785861990e+01
-4.075580667618373099e+01 -1.053672382302189625e+01 8.492446140211379557e+00 -1.053672382302189625e+01 -1.722674239329113988e+01 -2.785729816106281476e+01 8.492446140211379557e+00 -2.785729816106281476e+01 2.000282807075778280e+01
-4.990475041673430212e+01 -1.208019748774663427e+01 3.486285809230304977e+01 -1.208019748774663427e+01 -1.437082772489569926e+01 -1.540945428159755437e+01 3.486285809230304977e+01 -1.540945428159755437e+01 -3.838581418259574463e+01
-1.062515019312156461e+01 -9.766986781478120605e+00 1.171946968847658788e+01 -9.766986781478120605e+00 -5.540482561353275770e+01 -6.232670768197660749e+00 1.171946968847658788e+01 -6.232670768197660749e+00 -3.357357392597923962e+01
-1.058551776733128804e+02 1.341057165073399204e+01 -2.346221247762219875e+01 1.341057165073399204e+01 -1.091787198586704903e+02 3.631106189396911432e+00 -2.346221247762219875e+01 3.631106189396911432e+00 -1.176851782475235950e+02
-7.238728568762071802e+01 1.411312172508333518e+01 1.212117354389482315e+01 1.411312172508333518e+01 -6.012511181459713328e+01 -1.891501200914323633e+01 1.212117354389482315e+01 -1.891501200914323633e+01 -5.531847349639593681e+00
-4.736259575019181511e+01 4.863209226801089358e+00 -1.118572900980669527e+00 4.863209226801089358e+00 -8.723662519568895846e+01 -1.103055993721689809e+01 -1.118572900980669527e+00 -1.103055993721689809e+01 -1.067317638159557163e+02
-1.184578712713127580e+01 9.707264557884018430e+00 9.179030462286556613e+00 9.707264557884018430e+00 -1.434678627571901899e+01 1.270526887182729325e+01 9.179030462286556613e+00 1.270526887182729325e+01 -2.629637400531085945e+01
-7.744761921519322811e+01 1.999913581431692933e+01 -3.738081207749924140e+00 1.999913581431692933e+01 -1.113889840380796556e+02 1.676169241919112096e+01 -3.738081207749924140e+00 1.676169241919112096e+01 -1.236140700634562819e+02
-4.857432274909692183e+01 2.438807008616712935e+01 2.353837872821218813e+00 2.438807008616712935e+01 -4.374009797631578067e+01 -2.207028659417849781e+01 2.353837872821218813e+00 -2.207028659417849781e+01 -3.241362706551545614e+01
-1.033397320513874291e+02 -4.104281648453968145e+00 -1.127461001873560598e+01 -4.104281648453968145e+00 -9.817313629783194528e+01 4.277937207009709475e+00 -1.127461001873560598e+01 4.277937207009709475e+00 -6.156158764667372907e+01
-8.771816969771340666e+01 -7.205286893078699961e+00 3.930807949551896030e+01 -7.205286893078699961e+00 -8.115489988126505239e+01 -4.742046118190652138e+00 3.930807949551896030e+01 -4.742046118190652138e+00 -5.812868372073157985e+01
-8.570724139683312615e+01 2.084458936200061174e+01 3.591480590461770817e+00 2.084458936200061174e+01 -3.933820659158150157e+00 6.768840755436482226e+00 3.591480590461770817e+00 6.768840755436482226e+00 -6.338494647036345953e+01
-9.666194714911868857e+01 -1.279375788701729633e+01 1.455201773475006277e+01 -1.279375788701729633e+01 -3.468479743535717574e+01 -8.970758549817604788e+00 1.455201773475006277e+01 -8.970758549817604788e+00 -7.036970016032286424e+01
-3.802866860659646875e+01 -3.487024271945248888e+00 1.194809069509160970e+01 -3.487024271945248888e+00 -7.024554789715635650e+01 -2.759027426401327787e+01 1.194809069509160970e+01 -2.759027426401327787e+01 -2.265866610083065424e+01
-9.381301168748208852e+01 -5.910808305319511646e+01 -1.201564870833639098e+01 -5.910808305319511646e+01 -4.428517881146285617e+01 7.888921635956270606e+00 -1.201564870833639098e+01 7.888921635956270606e+00 -8.731190679747554384e+01
-8.613267477969387187e+01 1.008529526215220429e+01 -2.064910799568679067e+01 1.008529526215220429e+01 -6.147647758397526729e+01 2.032519093534813592e+01 -2.064910799568679067e+01 2.032519093534813592e+01 -8.128974328383534953e+01
-7.175843234233983026e+01 1.024935906367590244e+00 -7.602127742546871403e+00 1.024935906367590244e+00 -6.129794349147999100e+01 6.634666465162164073e+00 -7.602127742546871403e+00 6.634666465162164073e+00 -1.006256454433080165e+02
-3.359544169652752288e+01 -2.418350996842516665e+01 -1.221080387384439447e+01 -2.418350996842516665e+01 -3.740502286018931244e+01 -1.958435666470636383e+00 -1.221080387384439447e+01 -1.958435666470636383e+00 -6.075176791595065851e+01
-7.988556861721470170e+01 -2.277907306804673837e+01 1.166300868621733267e-01 -2.277907306804673837e+01 -4.848841387220246446e+01 5.557739324443354612e+00 1.166300868621733267e-01 5.557739324443354612e+00 -6.719605338407427553e+01
-5.367639226195790059e+01 2.424139019581340548e+01 -1.580844901557459892e+01 2.424139019581340548e+01 -4.714938146392192664e+01 4.655030454691492459e+00 -1.580844901557459892e+01 4.655030454691492459e+00 -7.342243011454687007e+01
-5.067027537311622609e+01 3.258571891714313296e+01 -2.747649091859958403e+01 3.258571891714313296e+01 -7.584631683152039727e+01 1.485037919618248914e+01 -2.747649091859958403e+01 1.485037919618248914e+01 -1.310773982110092106e+02
-6.195721869330516540e+01 -6.573942758279918586e+00 -4.895192501114453698e+00 -6.573942758279918586e+00 -1.365637392518597153e+02 1.416184477648098650e+01 -4.895192501114453698e+00 1.416184477648098650e+01 -5.391563645116743686e+01
-9.872671752075881102e+01 -2.109025180199714811e+01 2.323305827737165430e+01 -2.109025180199714811e+01 -5.151405471796977764e+01 1.287613952593119571e+01 2.323305827737165430e+01 1.287613952593119571e+01 -7.346227548032992161e+01
-1.840716839117352777e+01 -5.776951965377257636e+00 -6.148672581740281196e+00 -5.776951965377257636e+00 -3.699593484337547089e+00 2.424372150282949789e+01 -6.148672581740281196e+00 2.424372150282949789e+01 -2.944536401165960271e+01
-1.780793923526496769e+01 -2.715606600318611186e+01 -6.110644232527695507e-01 -2.715606600318611186e+01 -6.026221166546975638e+01 3.670076681370414917e+01 -6.110644232527695507e-01 3.670076681370414917e+01 -6.543347105857149870e+01
-2.212740111275314447e+01 -1.888901371409410501e+01 -2.521013199272107030e+01 -1.888901371409410501e+01 -2.533607253563968698e+01 8.247197252578704507e+00 -2.521013199272107030e+01 8.247197252578704507e+00 -4.956667313014764886e+01
-9.058950442932022895e+00 3.296564035451981400e+00 -1.658314946362597908e+01 3.296564035451981400e+00 -4.002733623194387036e+01 -7.806240903999431602e+00 -1.658314946362597908e+01 -7.806240903999431602e+00 -8.319204062803597921e+00
-3.417799012078712195e+01 -6.519451534785239311e+00 -8.196588832578459716e+00 -6.519451534785239311e+00 -1.077609823392603232e+02 5.549558486311445549e+00 -8.196588832578459716e+00 5.549558486311445549e+00 -1.173910258587562794e+02
-7.365245214253445738e+01 1.668649155957801611e+01 5.780515241304438945e+00 1.668649155957801611e+01 -5.417597061759277466e+01 -7.474066995596892582e+00 5.780515241304438945e+00 -7.474066995596892582e+00 -5.819340616537517263e+01
1.328484406488503566e+01 1.109132492730471764e+00 1.703876891545385774e+01 1.109132492730471764e+00 -4.583864350353658068e+01 -6.178494056200369400e+00 1.703876891545385774e+01 -6.178494056200369400e+00 -2.962586057417414054e+01
-5.521865911108290703e+01 3.192342050241971663e+01 9.824051969480791513e+00 3.192342050241971663e+01 -5.781947633655720864e+01 -5.180863667915888371e+00 9.824051969480791513e+00 -5.180863667915888371e+00 -6.660591410073536167e+01
-1.836755006992843775e+01 4.009550646051330824e-01 8.979104439691870665e-02 4.009550646051330824e-01 -8.412589245710758235e+01 1.928290330705418754e+01 8.979104439691870665e-02 1.928290330705418754e+01 -9.178869485554066898e+01
-9.917320387939587079e+01 7.995531391386093922e+00 2.375839018993604412e+01 7.995531391386093922e+00 -4.683386487663148046e+01 -2.183310698235648672e+01 2.375839018993604412e+01 -2.183310698235648672e+01 -4.432436838165995141e+01
6.775733936001695490e+00 3.229234631558622937e+01 -2.683537235457159298e+01 3.229234631558622937e+01 4.897873312802782486e+00 -6.176936920572924983e+00 -2.683537235457159298e+01 -6.176936920572924983e+00 -5.617075113442493262e+01
-7.255737855819634774e+01 4.342873449791227358e+01 -3.546323856419613918e+01 4.342873449791227358e+01 -7.186619917018390424e+01 2.209203190894246216e+00 -3.546323856419613918e+01 2.209203190894246216e+00 -7.373959792590484597e+01
-6.213715332937257330e+01 2.251543650032810362e+01 -4.418003332408186878e+00 2.251543650032810362e+01 -7.834858265945972278e+01 -2.963217932605124361e+01 -4.418003332408186878e+00 -2.963217932605124361e+01 -6.024082438697590902e+01
-7.920544960121920042e+01 1.040251663156707451e+01 -9.799507818380376989e+00 1.040251663156707451e+01 -5.848377732782011407e+01 -1.056388508273193860e+00 -9.799507818380376989e+00 -1.056388508273193860e+00 -4.330638603628391081e+01
-5.805883304996446270e+01 3.581066446063602626e+01 4.837521413496753020e+00 3.581066446063602626e+01 -9.842832108705383121e+01 2.965846742822649151e+00 4.837521413496753020e+00 2.965846742822649151e+00 -1.220701731583661171e+02
-7.156670955364171505e+01 1.759440984281980036e+01 3.470795842663486042e+01 1.759440984281980036e+01 -1.074571798410518397e+02 -1.837882295234266294e+01 3.470795842663486042e+01 -1.837882295234266294e+01 -9.535836210919168821e+01
-5.866723406285070297e+01 -8.596554610704783883e+00 2.331739717021693536e+01 -8.596554610704783883e+00 -1.210380206145179898e+02 2.506852281889368683e+01 2.331739717021693536e+01 2.506852281889368683e+01 -8.262129905810634511e+01
-2.443321266474375975e+01 4.808722098704126147e+00 4.727370110410480919e+01 4.808722098704126147e+00 -6.825849557740500018e+01 -2.002383147754621362e+01 4.727370110410480919e+01 -2.002383147754621362e+01 -2.968721352007871772e+01
-2.011689740023155082e+01 -3.918071045713885781e+01 1.105304686917190438e+01 -3.918071045713885781e+01 3.963042198508473035e+01 -1.325971782515511244e+01 1.105304686917190438e+01 -1.325971782515511244e+01 -3.641994419382247372e+01
-6.169918970662435953e+01 -1.848532155035138658e+01 -3.062057937065344859e+01 -1.848532155035138658e+01 -5.119599127991548926e+01 9.755467450680466612e+00 -3.062057937065344859e+01 9.755467450680466612e+00 -3.929890262250028599e+01
-2.506000371642215896e+01 2.583021340977851210e+01 -4.403177528944373975e+00 2.583021340977851210e+01 -9.135321842809617010e+01 -2.668255209029710784e+01 -4.403177528944373975e+00 -2.668255209029710784e+01 9.589004915612646229e+00
-9.780288492633408737e+01 -8.045255632992283523e+00 6.267318076430574258e+00 -8.045255632992283523e+00 -5.512059338790449914e+01 1.499479252682286656e+01 6.267318076430574258e+00 1.499479252682286656e+01 -8.547382361660235972e+01
-5.429978123458862882e+01 1.240287617999636005e+01 -9.241194303669145738e-01 1.240287617999636005e+01 -5.595449190174345944e+01 8.141176090745879890e+00 -9.241194303669145738e-01 8.141176090745879890e+00 -1.310237654782816286e+01
-4.855401692814168513e+01 5.653633963853383904e+00 4.408876425693973289e+01 5.653633963853383904e+00 -6.262955765721677182e+01 1.838963841897227525e+01 4.408876425693973289e+01 1.838963841897227525e+01 -6.656903931584632517e+01
-6.868104340769779981e+01 -4.097127706739393460e+01 -2.942320019798837727e+00 -4.097127706739393460e+01 -7.875625191344464326e+01 -2.152371097366744834e+01 -2.942320019798837727e+00 -2.152371097366744834e+01 -7.841742370970000309e+01
-9.622612839330017209e+01 -8.178033401963986648e+00 1.730802875218721582e+01 -8.178033401963986648e+00 -7.462491044900843917e+01 -1.031463264858996176e+01 1.730802875218721582e+01 -1.031463264858996176e+01 -4.396979114177439385e+01
-1.031381209636802367e+02 1.228602277722264446e+01 -3.040090664949986632e+01 1.228602277722264446e+01 -2.631774457583688331e+01 1.865986810313007283e+01 -3.040090664949986632e+01 1.865986810313007283e+01 -8.641799841387158665e+01
-9.931919572792659778e+01 -3.745153158909266011e+01 -8.953381570078292051e-02 -3.745153158909266011e+01 -8.969165487606741749e+01 -3.506694258201719805e+01 -8.953381570078292051e-02 -3.506694258201719805e+01 -6.655061402885252164e+01
-1.118571955938729872e+02 -4.817024022054076760e+00 -6.119816012101339453e+01 -4.817024022054076760e+00 -8.454087319369173770e+01 -2.097493499625865709e+01 -6.119816012101339453e+01 -2.097493499625865709e+01 -1.375736634151368492e+02
-3.699821494497039964e+01 -2.213380725096663060e+00 -3.262282666650001772e+01 -2.213380725096663060e+00 -4.016184834806976056e+01 -1.275767143439991358e+01 -3.262282666650001772e+01 -1.275767143439991358e+01 -8.131018362496141094e+01
-5.295306979117562918e+01 -1.427283224887061586e+01 -1.692798977664497428e+01 -1.427283224887061586e+01 -1.004252051633479681e+02 1.278677312858364346e+01 -1.692798977664497428e+01 1.278677312858364346e+01 -7.617814154594753973e+01
-5.297548461724547053e+01 6.228568231963862445e+00 -2.219488863463049189e+00 6.228568231963862445e+00 -4.672608043951530021e+01 -4.720571507207971251e-01 -2.219488863463049189e+00 -4.720571507207971251e-01 -7.261840427344358773e+01
-2.750598723209470364e+01 -1.802433449562237655e+01 2.359117978234047897e+01 -1.802433449562237655e+01 -6.080662033511046616e+01 3.465678093497167822e+01 2.359117978234047897e+01 3.465678093497167822e+01 -7.335971467567932791e+01
-1.243051385107373221e+02 3.977016639549326271e+00 -1.228762971542785110e+01 3.977016639549326271e+00 -1.003628998470090750e+02 4.767655395022803333e+00 -1.228762971542785110e+01 4.767655395022803333e+00 -7.484337128389444160e+01
-5.809747719079742012e+01 8.937101760034485309e+00 1.404066154394423904e+01 8.937101760034485309e+00 -3.826704265644063696e+01 -9.683580574045684841e+00 1.404066154394423904e+01 -9.683580574045684841e+00 -3.200662578230566169e+01
-6.782421954960902610e+01 2.636017613031049223e+01 3.642236866444077492e+01 2.636017613031049223e+01 -4.318315561419655069e+01 3.700044561861236758e+00 3.642236866444077492e+01 3.700044561861236758e+00 -3.913971418868712959e+01
-5.876383361549799389e+01 1.846182987949978838e+01 -5.581939970458144984e+01 1.846182987949978838e+01 -3.628629288350808224e+01 2.827797555251374106e+01 -5.581939970458144984e+01 2.827797555251374106e+01 -1.068090320754606637e+02
-5.719149031823260287e+01 2.390141431743577272e+01 7.561916990339208944e+00 2.390141431743577272e+01 -9.387920296854166224e+01 7.124766807639072219e+00 7.561916990339208944e+00 7.124766807639072219e+00 -4.558807147622905376e+01
-8.783620818602258851e+00 6.850358271508025787e+00 -1.142974612060425521e+01 6.850358271508025787e+00 -1.001377433299779511e+02 1.697492911426882856e+01 -1.142974612060425521e+01 1.697492911426882856e+01 -1.040523525876073307e+02
-1.207866743266581295e+02 -2.161513376751051752e+01 -1.694894670420570293e+01 -2.161513376751051752e+01 -9.808901913458572608e+01 -3.240936900288018307e+01 -1.694894670420570293e+01 -3.240936900288018307e+01 -6.559164322707970030e+01
-9.670977869534397087e+01 6.400506666943639011e+00 1.542295538870279970e+01 6.400506666943639011e+00 -8.552775253670127142e+01 -1.398006258480816300e+01 1.542295538870279970e+01 -1.398006258480816300e+01 -3.663539665342337059e+01
-3.100375116523078489e+01 4.027557161470453195e+01 2.396327958693233384e+01 4.027557161470453195e+01 -1.118256617314122359e+01 4.589475261745333512e+01 2.396327958693233384e+01 4.589475261745333512e+01 -1.710998809804971543e+01
-6.334296672593210076e+01 -1.828212793933672842e+01 1.082413378153112227e+01 -1.828212793933672842e+01 -1.464570122583320142e+02 1.163262696231145199e+01 1.082413378153112227e+01 1.163262696231145199e+01 -1.377941484688786034e+02
-4.846668047989250994e+01 1.764223410433914907e+01 -2.955741845595112594e+01 1.764223410433914907e+01 -2.087468029639110156e+01 1.682694071425329696e+01 -2.955741845595112594e+01 1.682694071425329696e+01 -5.265623519417209053e+01
-7.113611325275128650e+01 2.487788335399222106e+01 -1.185309954561921941e+01 2.487788335399222106e+01 -5.190905775529328281e+01 -6.987585253736503965e+00 -1.185309954561921941e+01 -6.987585253736503965e+00 -1.223587292731805150e+02
-8.802526631191310003e+01 -7.800611843672085044e+00 7.234744752456079731e+00 -7.800611843672085044e+00 -5.882196897776498901e+01 1.312443472857066062e+01 7.234744752456079731e+00 1.312443472857066062e+01 -8.608837666454313364e+01
-3.031890197008598875e+01 2.258519761047941898e+01 -1.359556517908200668e+01 2.258519761047941898e+01 -7.811080045814229322e+01 7.374274357933524371e+00 -1.359556517908200668e+01 7.374274357933524371e+00 -5.059724869098002387e+01
-5.536895461905254479e+01 -6.670920269929339064e+00 2.064106678202888845e-01 -6.670920269929339064e+00 -3.656938146875783247e+01 -8.824770564079456037e+00 2.064106678202888845e-01 -8.824770564079456037e+00 -5.716460366335731180e+01
-6.075899021723451909e+01 5.674752603704988019e+00 -5.190285995543294284e+00 5.674752603704988019e+00 -5.339323612991752555e+01 -1.519552482216762757e+00 -5.190285995543294284e+00 -1.519552482216762757e+00 -5.088702866191795948e+01
-4.703188839145726519e+01 -2.474239094044459364e+01 2.509674088889288868e+01 -2.474239094044459364e+01 -9.129183439582479309e+01 1.771126913523972490e+01 2.509674088889288868e+01 1.771126913523972490e+01 -6.824093786954142615e+01
-8.319396408512847074e+01 -1.169367467652672588e+01 -3.844340673502934891e+01 -1.169367467652672588e+01 -9.687405537730020910e+01 -3.331849554695759963e+01 -3.844340673502934891e+01 -3.331849554695759963e+01 -4.801827961694183244e+01
-1.220924161783662072e+02 1.907501128465219509e+01 7.888163033277677982e+00 1.907501128465219509e+01 -1.082344516096729734e+02 -1.243314892511601544e+00 7.888163033277677982e+00 -1.243314892511601544e+00 -4.618042368075389703e+01
-7.233112710867709438e+01 1.724492359982938794e+01 1.533435535166137242e+01 1.724492359982938794e+01 -7.028828005918235533e+01 -8.974845116458726735e-02 1.533435535166137242e+01 -8.974845116458726735e-02 -1.107497465040928972e+02
-6.510017438669669332e+01 -2.083350820018716743e-01 5.116519898077303452e+00 -2.083350820018716743e-01 -3.079894599423147383e+01 1.683574844346678590e-01 5.116519898077303452e+00 1.683574844346678590e-01 -6.419327536235400089e+01