7.630573000000000050e+00 5.636609999999999676e-01 1.393581299999999956e+01 1.244321300000000008e+01 2.856002999999999847e+00 1.315051300000000012e+01 2.454003000000000156e+00 4.584852999999999845e+00 8.316302999999999557e+00 1.107311299999999932e+01 8.857473000000000596e+00 1.356591300000000011e+01 1.286791299999999971e+01 1.421361300000000050e+01 1.110382999999999898e+00 1.210961299999999952e+01 1.228571299999999944e+01 4.491122999999999976e+00 1.847472999999999921e+00 5.908863000000000198e+00 2.510993000000000031e+00 3.882780000000000120e-01 1.871123000000000092e+00 2.948833000000000037e+00 3.236372999999999944e+00 1.221211300000000044e+01 1.565782999999999925e+00 1.423831299999999978e+01 2.788263000000000158e+00 1.432841299999999940e+01 7.199830000000000396e-01 1.327501299999999951e+01 1.425221299999999935e+01 4.870332999999999579e+00 8.584462999999999511e+00 4.098943000000000225e+00 1.016631300000000060e+01 9.585743000000000791e+00 5.950232999999999883e+00 1.247801300000000069e+01 5.979273000000000060e+00 9.512162999999999258e+00 1.408941300000000041e+01 1.240291299999999985e+01 4.189199999999999868e-02 6.516882999999999981e+00 9.578792999999999225e+00 1.351441299999999934e+01 7.431042999999999843e+00 1.147031300000000087e+01 1.461001300000000036e+01 3.082303000000000015e+00 4.739692999999999934e+00 1.402391300000000030e+01 1.188461299999999987e+01 7.645172999999999774e+00 5.143862999999999630e+00 1.502091300000000018e+01 9.854513000000000744e+00 6.531392999999999560e+00 5.764413000000000231e+00 2.551883000000000123e+00 1.389521300000000004e+01 6.317573000000000327e+00 4.192013000000000211e+00 4.177082999999999657e+00 1.020841300000000018e+01 1.241471300000000078e+01 1.360551300000000019e+01 6.201753000000000071e+00 9.862113000000000795e+00 7.983333000000000013e+00 6.914423000000000208e+00 2.546173000000000020e+00 5.966763000000000261e+00 1.455441300000000027e+01 2.823122999999999827e+00 9.367029999999999523e-01 1.484371299999999927e+01 7.668853000000000364e+00 5.646643000000000079e+00 1.344571299999999958e+01 1.362821300000000058e+01 5.992313000000000223e+00 7.320793000000000106e+00 9.075442999999999927e+00 3.261813000000000073e+00 3.580213000000000090e+00 1.187161299999999997e+01 5.325512999999999941e+00 5.311862999999999779e+00 4.720032999999999923e+00 1.504371300000000033e+01 9.491493000000000180e+00 4.561792999999999765e+00 2.569653000000000187e+00 9.476872999999999436e+00 1.455152999999999919e+00 9.485402999999999807e+00 7.102020000000000000e-01 2.792943000000000175e+00 8.267483000000000359e+00 9.496192999999999884e+00 1.440701299999999918e+01 1.074921299999999924e+01 9.673372999999999777e+00 1.813843000000000094e+00 6.834572999999999787e+00 1.281481299999999912e+01 1.146451300000000018e+01 2.000812999999999953e+00 9.167013000000000744e+00 1.204312999999999967e+00 4.384553000000000367e+00 7.363382999999999790e+00 7.605963000000000029e+00 1.198281300000000016e+01 3.273343000000000114e+00 1.058761299999999927e+01 3.374423000000000172e+00 8.575793000000000887e+00 6.992833000000000077e+00 2.433822999999999848e+00 1.370391300000000001e+01 1.102751300000000079e+01 8.335452999999999335e+00 1.194531300000000051e+01 1.472211300000000023e+01 4.383263000000000353e+00 7.526412999999999798e+00 1.485551300000000019e+01 3.863493000000000066e+00 8.157453000000000287e+00 5.837543000000000148e+00 8.448453000000000657e+00 1.533801300000000012e+01 4.927113000000000298e+00 1.356411300000000075e+01 3.705013000000000112e+00 1.013301300000000005e+01 7.329152999999999807e+00 3.069882999999999917e+00 1.773783000000000110e+00 1.517503000000000046e+00 1.282202999999999982e+00 4.610892999999999908e+00 4.620670000000000055e-01 1.338931299999999958e+01 8.024642999999999304e+00 1.325841299999999912e+01 1.254523000000000055e+00 1.332173000000000052e+00 1.509261300000000006e+01 4.331382999999999761e+00 8.637152999999999636e+00 1.392461300000000080e+01 7.371933000000000291e+00 1.141191300000000020e+01 9.604872999999999550e+00 1.310262999999999955e+00 5.194800000000000528e-01 4.739952999999999861e+00 1.014871300000000076e+01 7.315953000000000372e+00 9.634152999999999523e+00 9.704542999999999253e+00 1.233361299999999972e+01 5.244112999999999580e+00 7.695212999999999859e+00 8.543782999999999461e+00 6.155723000000000056e+00 3.117283000000000026e+00 1.200101300000000037e+01 1.476881299999999975e+01 8.738473000000000823e+00 3.989562999999999970e+00 7.020382999999999818e+00 1.173693000000000097e+00 6.693522999999999890e+00 4.333183000000000007e+00 8.818032999999999788e+00 1.254001300000000008e+01 1.143571299999999979e+01 1.709033000000000024e+00 5.456002999999999936e+00 1.193161300000000047e+01 9.243833000000000411e+00 3.814262999999999959e+00 6.697349999999999692e-01 1.122731300000000054e+01 1.126651299999999978e+01 7.429813000000000223e+00 1.593633000000000077e+00 1.067921300000000073e+01 8.105133000000000365e+00 6.276523000000000074e+00 1.337961300000000087e+01 8.347673000000000343e+00 3.479743000000000031e+00 1.170731299999999919e+01 1.252761300000000055e+01 9.694133000000000777e+00 8.226682999999999524e+00 1.179991300000000010e+01 7.704972999999999850e+00 1.084201299999999968e+01 1.245533000000000001e+00 3.278122999999999898e+00 6.672932999999999559e+00 4.513112999999999708e+00 3.618643000000000054e+00 1.475771300000000075e+01 2.608172999999999853e+00 2.096242999999999856e+00 2.699832999999999927e+00 4.572763000000000133e+00 1.320141300000000051e+01 6.780592999999999648e+00 7.113303000000000154e+00 1.454481299999999955e+01 7.374032999999999838e+00 1.484361299999999950e+01 1.295831300000000041e+01 7.412963000000000413e+00 2.606752999999999876e+00 2.516483000000000025e+00 1.109471300000000049e+01 1.017961299999999980e+01 1.429731300000000083e+01 6.939582999999999835e+00 1.109171300000000038e+01 1.216711300000000051e+01 1.847803000000000084e+00 6.161872999999999934e+00 4.790523000000000309e+00 1.492441299999999949e+01 8.130362999999999118e+00 1.537841300000000011e+01 8.379053000000000750e+00 1.353412999999999977e+00 8.358593000000000828e+00 1.240911299999999962e+01 3.115572999999999926e+00 1.134081300000000070e+01 1.041981299999999955e+01 1.525701300000000060e+01 9.612472999999999601e+00 2.121322999999999848e+00 1.433741299999999974e+01 1.032041300000000028e+01 2.756442999999999977e+00 1.181301299999999976e+01 6.536823000000000050e+00 6.177023000000000152e+00 5.886332999999999593e+00 4.563599999999999879e-01 1.531151299999999971e+01 8.438202999999999676e+00 3.908622999999999958e+00 7.520729999999999915e-01 1.384801299999999991e+01 1.030972999999999917e+00 6.255353000000000385e+00 9.814213000000000520e+00 1.388741300000000045e+01 1.138800000000000055e-02 1.156671300000000002e+01 1.157211299999999987e+01 1.446423000000000014e+00 3.901352999999999849e+00 4.812242999999999604e+00 2.048102999999999785e+00 4.903963000000000072e+00 2.875862999999999836e+00 1.414131300000000024e+01 5.051713000000000342e+00 7.210530000000000550e-01 1.477851300000000023e+01 1.233291299999999957e+01 3.222503000000000117e+00 1.418751299999999915e+01 1.218471300000000035e+01 4.923973000000000155e+00 2.786693000000000087e+00 2.920612999999999904e+00 1.383461299999999916e+01 2.422613000000000127e+00 8.092733000000000843e+00 1.314771299999999954e+01 3.889699999999999824e-01 9.823313000000000628e+00 7.680082999999999771e+00 5.619972999999999885e+00 5.690589999999999815e-01 7.900192999999999799e+00 1.366531299999999938e+01 1.420801299999999934e+01 1.177981300000000076e+01 5.156123000000000012e+00 1.964752999999999972e+00 4.694552999999999976e+00 5.869722999999999580e+00 7.974472999999999701e+00 6.200013000000000218e+00 6.656933000000000433e+00 9.774613000000000440e+00 1.463551299999999955e+01 1.344051299999999927e+01 8.536523000000000749e+00 8.061472999999999445e+00 1.392161300000000068e+01 6.197072999999999610e+00 1.158511299999999977e+01 1.366791300000000042e+01 1.185751300000000086e+01 1.232971299999999992e+01 4.003533000000000008e+00 1.516601299999999952e+01 1.492731299999999983e+01 1.743212999999999901e+00 1.507051300000000005e+01 3.805533000000000055e+00 4.781452999999999953e+00 8.206782999999999717e+00 1.403221300000000049e+01 1.164291300000000007e+01 1.088513000000000064e+00 5.212303000000000353e+00 4.053322999999999787e+00 3.427802999999999933e+00 2.698342999999999936e+00 9.509843000000000046e+00 7.757782999999999873e+00 1.066471300000000078e+01 1.404791299999999943e+01 1.070221300000000042e+01 1.191991299999999931e+01 3.200933000000000028e+00 1.171481299999999948e+01 2.085552999999999990e+00 6.293232999999999855e+00 1.086051299999999920e+01 9.674032999999999660e+00 1.197281300000000037e+01 1.242831299999999928e+01 9.088212999999999653e+00 1.178531300000000037e+01 4.207543000000000255e+00 1.177819999999999978e-01 7.090112999999999666e+00 3.127150000000000207e-01 9.892813000000000301e+00 3.512052999999999869e+00 6.373863000000000056e+00 1.289351300000000045e+01 5.826323000000000363e+00 8.243703000000000003e+00 1.169021299999999997e+01 2.438760000000000094e-01 3.614942999999999795e+00 4.909450000000000203e-01 1.061261299999999963e+01 7.253623000000000154e+00 9.745513000000000758e+00 2.846683000000000074e+00 1.530981300000000012e+01 6.896473000000000297e+00 5.532643000000000200e+00 4.715263000000000204e+00 4.037322999999999773e+00 1.527791299999999985e+01 1.288441300000000034e+01 6.616762999999999728e+00 7.225493000000000166e+00 1.100171300000000052e+01 1.699932999999999916e+00 4.739972999999999992e+00 1.451551300000000033e+01 5.506269999999999776e-01 1.074332999999999982e+00 8.191243000000000052e+00 2.332282999999999884e+00 5.158133000000000301e+00 1.460202999999999918e+00 7.077903000000000056e+00 3.078333000000000208e+00 4.443272999999999584e+00 9.157472999999999530e+00 1.340781300000000087e+01 1.390071299999999965e+01 1.506871300000000069e+01 1.518081300000000056e+01 1.133761299999999927e+01 1.469091300000000011e+01 1.185061299999999918e+01 9.083543000000000589e+00 1.083951300000000018e+01 4.163203000000000209e+00 2.420233000000000079e+00 3.652943000000000051e+00 7.793682999999999694e+00 1.326321300000000036e+01 1.213111299999999915e+01 1.174161299999999919e+01 8.212543000000000148e+00 7.924729999999999830e-01 6.212473000000000134e+00 3.262893000000000043e+00 1.499913000000000052e+00 1.883502999999999927e+00 5.579782999999999937e+00 9.277692999999999302e+00 1.745732999999999979e+00 8.127323000000000519e+00 7.331172999999999718e+00 1.445921300000000009e+01 5.164642999999999873e+00 8.547382999999999953e+00 1.382391299999999923e+01 1.115651300000000035e+01 2.231269999999999920e-01 3.825652999999999970e+00 6.719739999999999602e-01 2.258602999999999916e+00 1.156551299999999927e+01 8.925323000000000562e+00 1.111181299999999972e+01 6.437653000000000070e+00 9.385443000000000424e+00 3.975912999999999808e+00 1.192481300000000033e+01 4.712029999999999830e-01 9.939913000000000665e+00 2.312853000000000048e+00 1.052801299999999962e+01 1.234971299999999950e+01 6.796723000000000070e+00 6.138543000000000305e+00 3.578923000000000076e+00 1.353441300000000069e+01 1.913853000000000026e+00 1.116181300000000043e+01 9.202932999999999808e+00 1.482581300000000013e+01 1.295751300000000050e+01 1.347801300000000069e+01 2.703799999999999953e-02 7.114042999999999672e+00 1.797463000000000033e+00 1.368241300000000038e+01 1.250181300000000029e+01 7.704242999999999952e+00 3.981272999999999840e+00 1.522401299999999935e+01 6.642023000000000010e+00 1.012861299999999964e+01 2.343423000000000034e+00 1.000353000000000048e+00 1.436031299999999966e+01 5.858032999999999824e+00 3.931623000000000090e+00 1.395761300000000027e+01 5.033242999999999689e+00 7.082482999999999862e+00 8.953492999999999924e+00 7.165553000000000061e+00 1.477021300000000004e+01 1.390201300000000018e+01 1.443131299999999939e+01 7.921282999999999852e+00 1.196861299999999950e+01 2.535823000000000160e+00 1.113961300000000065e+01 2.101843000000000128e+00 3.671002999999999794e+00 2.661812999999999985e+00 4.612212999999999674e+00 1.836322999999999928e+00 1.484401300000000035e+01 5.354632999999999754e+00 1.379571299999999923e+01 8.078932999999999254e+00 1.673092999999999941e+00 1.250581299999999985e+01 1.147291300000000014e+01 3.278423000000000087e+00 1.125341300000000011e+01 9.047643000000000768e+00 5.466162999999999883e+00 1.448661300000000018e+01 6.193613000000000035e+00 1.389171299999999931e+01 6.927432999999999730e+00 8.286312999999999818e+00 1.305851299999999959e+01 7.945793000000000106e+00 1.060701300000000025e+01 1.538501300000000072e+01 3.801393000000000022e+00 9.238953000000000415e+00 3.643012999999999835e+00 1.529841300000000004e+01 6.925672999999999746e+00 4.835912999999999684e+00 7.630302999999999614e+00 6.866563000000000194e+00 1.295102999999999893e+00 1.462833000000000050e+00 5.607463000000000086e+00 8.816922999999999178e+00 3.869003000000000192e+00 1.301831299999999914e+01 1.230021299999999940e+01 1.221881300000000081e+01 6.332873000000000197e+00 2.454372999999999916e+00 6.063392999999999589e+00 9.155423000000000755e+00 3.888443000000000094e+00 6.855093000000000103e+00 1.023861300000000085e+01 9.376272999999999413e+00 1.007841299999999940e+01 2.218212999999999990e+00 1.294411299999999976e+01 1.485901299999999914e+01 3.714913000000000132e+00 1.371681300000000014e+01 1.398601299999999981e+01 8.714102999999999710e+00 1.421381300000000003e+01 1.475871300000000019e+01 9.203402999999999778e+00 5.377513000000000432e+00 1.208381299999999925e+01 4.047513000000000361e+00 1.379771299999999989e+01 1.322231299999999976e+01 3.187793000000000099e+00 6.688250000000000028e-01 3.002852999999999994e+00 4.550152999999999892e+00 1.264641300000000079e+01 1.685742999999999991e+00 2.023083000000000187e+00 9.498529999999999474e-01 1.906373000000000095e+00 1.298091299999999926e+01 1.463531300000000002e+01 9.198002999999999929e+00 1.319581299999999935e+01 6.271193000000000239e+00 6.774523000000000295e+00 5.616493000000000180e+00 9.070173000000000485e+00 1.143651299999999971e+01 1.347111300000000078e+01 4.137802999999999898e+00 1.361651299999999942e+01 9.903212999999999155e+00 7.633483000000000018e+00 8.607962999999999809e+00 5.216783000000000392e+00 7.257432999999999801e+00 7.161163000000000167e+00 1.272451299999999996e+01 1.489391299999999951e+01 8.687430000000000430e-01 6.421850000000000058e-01 3.453542999999999807e+00 4.813613000000000142e+00 1.587612999999999941e+00 1.425481300000000040e+01 7.956592999999999805e+00 5.987710000000000532e-01 3.554383000000000070e+00 8.654963000000000406e+00 3.729922999999999877e+00 1.863693000000000044e+00 9.034072999999999354e+00 8.789802999999999145e+00 5.658083000000000418e+00 2.588570000000000038e-01 5.379712999999999745e+00 1.233041300000000007e+01 1.472261300000000084e+01 1.864333000000000018e+00 2.208463000000000065e+00 1.025981299999999941e+01 1.026251300000000022e+01 7.144813000000000081e+00 3.803723000000000187e+00 1.490231299999999948e+01 4.058692999999999884e+00 1.008521299999999954e+01 1.709092999999999973e+00 3.704323000000000032e+00 5.386993000000000364e+00 5.977352999999999916e+00 6.730863000000000262e+00 6.282663000000000331e+00 5.417952999999999797e+00 4.181270000000000264e-01 1.185621300000000033e+01 5.124362999999999779e+00 5.186920000000000419e-01 1.444621300000000019e+01 7.428853000000000151e+00 7.054973000000000383e+00 1.561782999999999921e+00 2.780323000000000100e+00 3.304583000000000048e+00 1.074471300000000085e+01 1.138801300000000083e+01 1.448561300000000074e+01 8.464403000000000787e+00 1.147811300000000045e+01 1.038251299999999944e+01 1.868913000000000046e+00 3.305292999999999815e+00 8.030233000000000843e+00 3.174183000000000199e+00 1.109251300000000029e+01 1.376931300000000036e+01 4.911852999999999803e+00 5.695580000000000087e-01 7.550532999999999717e+00 6.509242999999999668e+00 1.269051299999999927e+01 9.679973000000000383e+00 7.176872999999999614e+00 9.876312999999999676e+00 1.939753000000000061e+00 1.207431300000000007e+01 7.871423000000000059e+00 1.300911299999999926e+01 2.774143000000000026e+00 1.140801300000000040e+01 4.335943000000000325e+00 5.110422999999999938e+00 9.461233000000000004e+00 1.415551299999999912e+01 4.031723000000000390e+00 5.295733000000000246e+00 1.490471299999999921e+01 3.947592999999999908e+00 2.716982999999999926e+00 1.842322999999999933e+00 1.021831300000000020e+01 8.270293000000000561e+00 1.055721300000000085e+01 3.532443000000000222e+00 4.395120000000000138e-01 1.836622999999999895e+00 7.120002999999999638e+00 1.337591300000000061e+01 7.273633000000000237e+00 1.225051299999999976e+01 2.377842999999999929e+00 4.709942999999999991e+00 8.329530000000000545e-01 9.167923000000000044e+00 1.806642999999999999e+00 1.342061299999999946e+01 2.066873000000000182e+00 6.814273000000000025e+00 3.124259999999999815e-01 1.442741299999999960e+01 1.374081299999999928e+01 7.689142999999999617e+00 3.137233000000000160e+00 6.929743000000000208e+00 3.524683000000000010e+00 1.312811300000000081e+01 5.723692999999999920e+00 7.464172999999999725e+00 7.217452999999999896e+00 6.124622999999999706e+00 1.403101299999999974e+01 1.378681300000000043e+01 7.217373000000000260e+00 8.678622999999999976e+00 7.337602999999999653e+00 1.208241300000000074e+01 1.357861300000000071e+01 1.959502999999999995e+00 1.326291299999999929e+01 9.146952999999999889e+00 5.775802999999999798e+00 2.978312999999999988e+00 9.004383000000000692e+00 3.106099999999999833e-02 9.757113000000000369e+00 8.532852999999999355e+00 1.164421300000000059e+01 2.118033000000000055e+00 4.978703000000000323e+00 1.359441299999999941e+01 8.348973000000000866e+00 7.362673000000000023e+00 1.335281299999999938e+01 3.098853000000000080e+00 5.061062999999999867e+00 9.586522999999999683e+00 7.594623000000000346e+00 1.294411299999999976e+01 5.964673000000000336e+00 1.085471300000000028e+01 4.345073000000000185e+00 7.516652999999999807e+00 5.042263000000000162e+00 5.210839999999999916e-01 1.401291299999999929e+01 8.708923000000000414e+00 1.356261300000000070e+01 1.434221299999999921e+01 9.433082999999999885e+00 1.301441299999999934e+01 1.490921299999999938e+01 5.404503000000000057e+00 1.181141299999999994e+01 1.058931300000000064e+01 1.127723000000000031e+00 1.524491300000000038e+01 1.235051299999999941e+01 1.458541300000000085e+01 8.320442999999999145e+00 8.143402999999999281e+00 3.195422999999999902e+00 5.264673000000000158e+00 1.856522999999999923e+00 3.735303000000000040e+00 1.100021300000000046e+01 1.206973000000000074e+00 6.397043000000000035e+00 1.202481299999999997e+01 1.302311300000000038e+01 1.286781299999999995e+01 8.636442999999999870e+00 6.927673000000000414e+00 9.085753000000000412e+00 1.316841299999999926e+01 1.299372999999999889e+00 8.810503000000000640e+00 1.920223000000000013e+00 1.403561299999999967e+01 1.187501299999999915e+01 8.742233000000000587e+00 4.916583000000000148e+00 4.663199999999999984e-02 3.840593000000000146e+00 1.118081300000000056e+01 6.576032999999999795e+00 1.110791299999999993e+01 1.185621300000000033e+01 5.649503000000000164e+00 1.315841299999999947e+01 1.478901300000000063e+01 2.235053000000000178e+00 7.402322999999999986e+00 9.374943000000000026e+00 7.227813000000000265e+00 5.636313000000000351e+00 2.402182999999999957e+00 6.035112999999999950e+00 8.757792999999999495e+00 7.996029999999999527e-01 1.465641300000000058e+01 1.009031300000000009e+01 9.159243000000000023e+00 1.271131300000000053e+01 1.269481299999999990e+01 1.518061299999999925e+01 1.133801300000000012e+01 1.492611300000000085e+01 3.444962999999999997e+00 8.209303000000000239e+00 6.798652999999999835e+00 1.086711299999999980e+01 1.341871300000000033e+01 2.149182999999999844e+00 6.694733000000000267e+00 5.414423000000000208e+00 1.364441300000000012e+01 1.257061299999999981e+01 5.207163000000000430e+00 2.799033000000000104e+00 1.090631300000000081e+01 1.140311299999999939e+01 3.057052999999999798e+00 5.962113000000000440e+00 3.374403000000000041e+00 8.831092999999999194e+00 1.046283000000000074e+00 5.703992999999999647e+00