-7.780302195775757718e+04
-7.780904939076730807e+04
-7.780590470122355327e+04
-7.780247525905258954e+04
-7.779730230410717195e+04
-7.780208053866687987e+04
-7.779649610612189281e+04
-7.779374086248745152e+04
-7.782083194608626945e+04
-7.782079087811186037e+04
-7.779410942206773325e+04
-7.780077438968523347e+04
-7.780176589980958670e+04
-7.779977888875614735e+04
-7.780425359660551476e+04
-7.779654471073676541e+04
-7.779800872919116227e+04
-7.780963539329689229e+04
-7.779064855982891459e+04
-7.780330026926063874e+04
-7.780329192148325092e+04
-7.777647838652943028e+04
-7.779974376700971334e+04
-7.780337684616935439e+04
-7.780463152166150394e+04
-7.780401069062437455e+04
-7.779001770492261858e+04
-7.779320740908966400e+04
-7.781361524024096434e+04
-7.781882622089114739e+04
-7.779809656111164077e+04
-7.781928927898233815e+04
-7.780160647216718644e+04
-7.779706989523691300e+04
-7.780921078427265456e+04
-7.778597588490229100e+04
-7.778040097872368642e+04
-7.780054768394264102e+04
-7.780604505454606260e+04
-7.779595381471593282e+04
-7.780120630925233127e+04
-7.782222744748006517e+04
-7.780459293758452986e+04
-7.780014822145274957e+04
-7.780128227404119389e+04
-7.779014412791260111e+04
-7.780491637355921557e+04
-7.779321374179839040e+04
-7.780276150274698739e+04
-7.779829145984942443e+04
-7.780605476404832734e+04
-7.780163177941591130e+04
-7.781312532317478326e+04
-7.781205448018763855e+04
-7.779271600823181507e+04
-7.780379147116400418e+04
-7.779613052987387346e+04
-7.780948206046347332e+04
-7.780687290885086986e+04
-7.780753170125844190e+04
-7.781061340842331992e+04
-7.779852423701736552e+04
-7.779791336407688505e+04
-7.778439334570038773e+04
-7.780043702126946300e+04
-7.779934930277017702e+04
-7.780181254448053369e+04
-7.780558144839560555e+04
-7.780512319181348721e+04
-7.780795487857205444e+04
-7.782324336082291848e+04
-7.780410064408378094e+04
-7.781030324563481554e+04
-7.779664848090801388e+04
-7.779163174352663918e+04
-7.779381878881486773e+04
-7.780699020654134802e+04
-7.780188245270599145e+04
-7.781504966537241125e+04
-7.780521694847168692e+04
-7.779692002329905517e+04
-7.779774457906706084e+04
-7.780744420954308589e+04
-7.780980887363688089e+04
-7.780765318715825561e+04
-7.780686672361606907e+04
-7.781440156137275335e+04
-7.779320410376900691e+04
-7.779827449600788532e+04
-7.781375963931286242e+04
-7.779315169298836554e+04
-7.779308859826592379e+04
-7.781554116859451460e+04
-7.779846114462349215e+04
-7.780429010897346598e+04
-7.779912698345821991e+04
-7.780607704929741158e+04
-7.779943451892964367e+04
-7.780523285051847051e+04
-7.780676007372586173e+04
-7.780166752934428223e+04
-7.781505827544104250e+04
-7.779762034282767854e+04
-7.780796853116151760e+04
-7.780007704056876537e+04
-7.780014617323638231e+04
-7.778501480193994939e+04
-7.779674848560358805e+04
-7.780841337225379539e+04
-7.779492020482430235e+04
-7.779471324196181376e+04
-7.780043156554576126e+04
-7.779826567014212196e+04
-7.780357353967940435e+04
-7.779764262545258680e+04
-7.781409654515812872e+04
-7.779948143475186953e+04
-7.779098813442329993e+04
-7.780854540326572896e+04
-7.780006770106889599e+04
-7.780354356568702497e+04
-7.779246522884725709e+04
-7.778543160605609592e+04
-7.780426228285126854e+04
-7.779484299943080987e+04
-7.779762790086556925e+04
-7.780517677982286841e+04
-7.780813925041946641e+04
-7.779997330521968252e+04
-7.780614978741740924e+04
-7.780063311755754694e+04
-7.779810230333957588e+04
-7.780460793289945286e+04
-7.780433685237467580e+04
-7.779951826612275909e+04
-7.780576947731820110e+04
-7.780574171706626657e+04
-7.779831237650639378e+04
-7.780149762329024088e+04
-7.781770215462098713e+04
-7.780098206020634098e+04
-7.780842653436576074e+04
-7.782120688440839876e+04
-7.781160795720919850e+04
-7.781598069406086870e+04
-7.778815682737198949e+04
-7.779310140248682001e+04
-7.781391436615373823e+04
-7.779602477570710471e+04
-7.781730370398506057e+04
-7.779013194772822317e+04
-7.780951055137603544e+04
-7.780646350022725528e+04
-7.778352979561878601e+04
-7.780607814467794378e+04
-7.781102035336547124e+04
-7.779638946126800147e+04
-7.781384853248551372e+04
-7.780319835412764223e+04
-7.780228781897168665e+04
-7.778536119206083822e+04
-7.780820306468682247e+04
-7.780608758719259640e+04
-7.779799657750769984e+04
-7.781525397433506441e+04
-7.780002548671193654e+04
-7.781021066694879846e+04
-7.779923160871557775e+04
-7.780449479398732365e+04
-7.780893428467058402e+04
-7.778197787665613578e+04
-7.780374253514414886e+04
-7.779813035453518387e+04
-7.781858665325565380e+04
-7.780864147798273189e+04
-7.780516516467777546e+04
-7.779033434590890829e+04
