1.657539437252565584e+00 3.536658620143318554e+00 1.665717602864000391e+00 1.602121360912654169e-01 1.666007109103892159e+00 -7.354797009665973384e+00 -9.969340203424245095e-01 2.405395247153162330e+00 1.496009867792556625e+00 1.550014865718218671e+00 -2.980238939926287411e+00 -2.193601635176394726e+00 2.176198350659706904e+00 1.564941149244571506e+00 3.760664458925039089e+00 2.417119478537764987e+00 9.499558479374027586e-02 6.829308217256626623e-01 5.929001403908965351e+00 -3.302852763741959574e+00 -3.768121687150455812e-01 3.439803099168959655e+00 3.551670778522357519e-02 9.318465384342650148e-01 5.095741767460988392e-01 1.354350813646749474e+00 2.664655541175977582e+00 1.325863502485539858e+00 -6.104778485604639648e+00 -2.109845885891629802e+00 -1.117823187213868863e+00 -1.819986376396351968e+00 1.317659111619692069e+00 -1.392696249363845951e+00 -2.150139189524729044e+00 2.582633744006514132e+00 -2.357278075953539886e+00 -3.481102218441896490e+00 1.004324399880122121e+00 -1.519251613850506555e+00 2.062392059362451402e+00 2.142614598390918168e+00 2.279113448065475944e-01 2.266941330473154714e+00 -1.070105565478537413e+00 -2.512200423963515838e+00 -4.140817005143347274e+00 -4.161109695631529659e-01 -2.986259435586415378e+00 -5.608347789305490744e-02 -4.520191021260063557e+00 -2.231490957154975696e+00 2.344068261039546464e+00 -1.115607410326314053e+00 2.795673826898908421e-01 4.481148816528662593e+00 6.528057177153318014e-01 -3.763151744328869341e+00 -5.477725453502126918e-01 1.066792955891712635e+00 4.660639599937478117e+00 -2.031750163573983414e+00 -1.483115270152193244e-01 3.343432488290902338e+00 9.410037802104491700e-01 1.872630746416590108e+00 -1.590841416191047575e+00 -2.187228898354053541e+00 2.076435940210911379e+00 9.034594488825666403e+00 -1.375331531397765206e+00 2.134516651204746651e+00 3.569762090301878299e+00 4.335330231344696195e+00 -2.633248485023461871e+00 3.349946121578128544e+00 -1.311225696757728931e+00 2.292300123049105132e+00 -3.938472198065354313e+00 7.347849888349921699e+00 7.871569247417408377e+00 1.244958592621662419e+00 2.551518765197264393e+00 -7.393392870851679399e-01 -1.251067534237849888e+00 2.639314746323644378e-01 -4.828184522850866855e+00 -1.854688044412075909e+00 -1.548769937464616664e+00 4.748562593570524015e+00 1.530706393601532822e+00 3.181457603726548289e+00 -1.189494236421022588e+00 1.336781950072787994e+00 -5.988804239942583374e-01 1.827895090374211107e-01 -1.211014371659864697e+00 -2.820634098451917371e+00 -3.441910375494139918e-01 -1.827758821895398622e+00 -5.615392612549746643e-01 -1.532384295663285378e+00 -1.318845418716370954e+00 1.072013427026044141e+01 -7.280254037990266269e+00 2.244104790306918673e+00 8.086778313115952077e-01 -4.368145223704713587e+00 -1.615524008579683812e+00 -3.458044049164836764e+00 -3.144008454645564221e+00 -5.374951252561243287e+00 -1.495946104428885981e+00 1.740149502873957754e+00 1.616505655847806810e+00 2.452477806355161105e-01 6.327459691928170038e-01 -2.874448834727916680e+00 -2.242930310285759177e+00 -2.851443630180357847e+00 -3.447907217003228997e+00 -1.507312438223853190e+00 1.204654490354392926e-01 -1.165614856726366000e+00 2.466185901103000067e+00 9.053199507059275231e-01 4.828964595614483102e+00 -5.917854128121446955e+00 4.978893860872507737e+00 5.294107534957662176e-02 -5.269937620581764293e+00 9.166096656203548410e-01 -1.868979265405096291e+00 9.119261437146111149e-01 4.305065773531504547e-01 -1.758083463127001700e+00 5.217491739741984880e+00 3.147693874221592636e-01 7.240332515905022248e+00 -1.101196890136748374e+00 -1.190253226136972931e+00 -9.219673308307133608e-01 -2.484321950081225694e+00 7.279842661450455221e-01 2.278128715473304755e+00 5.717192879532628780e-01 1.118806891364690914e+00 4.565143164206517667e-01 6.469358887129091074e-02 -4.749744786901804794e+00 2.095990724030808217e+00 3.614295143398400967e+00 3.224136377069874548e+00 -8.776490162879719392e+00 -1.041014764933425418e+01 -4.838840203673311358e+00 -1.602852068491492865e+00 4.281133429107346622e+00 2.390900908993610852e+00 7.923729221562018921e-02 4.021267897350335296e+00 1.826969493159637248e-01 -2.531764977976233677e+00 -3.223292026721913839e+00 -1.270585294169164214e+00 2.095395770710107186e+00 9.329711390499723089e-01 2.622080640408953389e+00 3.907220950777291701e+00 1.641253554262138148e-01 2.840569405571139239e+00 -1.464866606846194630e+00 1.652362263499049133e+00 2.709437991299760373e+00 3.085007288643903056e+00 -5.415196733671589158e+00 -4.750314029188767329e+00 -9.069037503841984593e-01 1.594285152049937038e+00 9.745731343003441793e+00 8.375384666826832802e-01 -5.986906251432031922e+00 -1.236181874144803183e+00 1.702229841875565752e-01 5.683531994162626111e-01 -8.714394931078008055e-02 -2.423624884294194981e+00 7.256666735638875876e-01 -1.251250596798065606e+00 -1.863688448882457216e+00 -2.555422728560067025e+00 -3.083689855275159708e+00 2.901248473634552849e-01 -4.419131232048839841e+00 -5.325943451152930663e+00 5.309472962940263052e+00 -4.059734174926001415e+00 2.266591660414316145e+00 -2.170380972166110034e+00 -3.256472115761013253e-01 1.283838303619837751e+00 -9.419129223634306047e-01 -2.128261670916926085e-01 -6.046715772334421146e-01 3.778616931122374289e+00 6.416887809476248261e-01 5.776301003434642034e+00 8.716097001511473596e-01 1.270740588812942606e+00 1.892532629191952864e+00 -1.256739902501163575e-01 -9.653629277946595977e-01 1.984621324511256502e+00 3.080942888430574289e+00 -3.203322266817482333e+00 6.107758908635568112e-02 1.606297347012406673e+00 -2.028648898684486390e+00 4.017863756483403215e+00 1.884883082434174684e+00 -1.959218308957276555e+00 -2.920149168756151603e+00 1.637241604557635455e+00 3.082667070353055649e+00 7.526648016509830397e-01 1.480549308985124601e-01 1.534816559454915685e+00 -1.283811564144750061e+00 -2.260433353613350960e+00 -1.929877391475959714e+00 -6.277523722201909795e-01 5.159433140237165011e-02 4.787461330733665532e-01 -3.185361567089351365e+00 3.983035075961012805e-01 -2.622888995309681448e+00 -9.884030993481022209e-01 -1.598496105155573277e+00 -2.663123163565183305e+00 -9.652436285981144670e-02 -1.608512095458612068e+00 1.498260611685995558e+00 2.917994069908218968e+00 -2.502722308486279301e-01 3.435992209748289117e+00 2.732944561005213213e+00 -3.767564786159687706e+00 -7.485854376160186341e+00 -6.064221386765386690e+00 5.979260818439652070e+00 -2.662778635713092257e-01 -5.808863513443350612e+00 -6.098811468894687476e-02 1.058194671988996083e+00 -9.519973040162128808e-02 6.323063105158943653e-02 -5.095658977932350453e+00 5.282054202341212035e-01 -3.660510726542749005e+00 7.642085415787434055e-01 2.616869013870227745e-01 9.991158586654451668e-01 1.175231297565114019e+00 5.028462162816311753e+00 -1.575148429638622449e+00 1.077562279483279539e+00 1.407345367946501558e+00 -3.568506363414106541e+00 7.367082255806741919e+00 3.412956151960244711e+00 4.255232647940196955e-01 2.192312998165437676e+00 5.223456699569239525e+00 5.832277523427346289e+00 1.413553039932243571e+00 -2.949242231872232889e+00 -4.179415951653102090e-01 -3.193394722470503044e+00 2.206667468301454438e+00 1.624783580270146022e+00 1.892606162748443843e+00 3.701932230336279162e+00 -3.091625822948780744e+00 3.035993830808167981e+00 -1.664136374289103326e+00 -1.476899884856329725e+00 -1.735943691975069259e+00 -2.804440260962272280e+00 1.148686197892484939e+00 -5.609444107784085531e+00 -4.650613839441618325e+00 -2.635549622543027048e+00 1.980499331582354028e+00 4.413113821712760232e-01 -2.942679233400229410e-01 -2.828599376704000190e-01 1.012280422160059201e+00 -1.408631948074759332e+00 7.601040321527831045e-01 -2.197931887478576041e+00 3.424574968106520512e+00 2.776443002104111990e+00 -4.005249409110785974e-01 -1.293123072123363082e+00 8.201305541799226440e-01 -1.250315229390671190e+00 -4.847301190655866066e+00 -9.252429165289552948e-01 -1.249002424008000434e+00 -4.199319377090488636e+00 -1.860193290956091206e+00 4.310331393241080278e-01 -2.176423065094577947e+00 -3.141116991791371299e-02 -2.424302112922858132e+00 5.710317749111044894e-02 4.145016645394138166e+00 3.306673937576126043e+00 2.773954174038257836e+00 -5.570100055516599147e-01 1.772065637494489421e+00 -1.191692015584960629e+00 7.261577543082864405e-01 -3.617994961153322975e-01 -1.415563128549893079e+00 -1.252326346449670336e+00 3.308126610982331961e+00 2.080804244843024731e-01 2.206398530888553200e+00 -2.623919493541906789e+00 -7.093405785166938315e+00 1.194534627475051869e-03 3.301982702360259925e+00 1.256107411071204538e+01 -3.407145972556094637e+00 3.569758490757155123e+00 -2.405070259686712397e+00 -2.840814688833000812e+00 2.588472719768450947e+00 -1.073143581225038723e+00 -2.120562758974370521e+00 2.491216620888451416e+00 -9.680265908899332583e-01 -9.251626981036921160e-01 -4.343866294545765783e+00 -1.462993815148706800e-01 1.167363721241235996e+00 3.653805288943835494e-01 -3.280517074512943054e-01 3.703502660277006253e+00 2.254583064996569686e+00 -9.866094976345279877e-01 -2.286596387324631330e+00 2.022875228948244786e+00 2.960161193680155733e+00 9.654565159574662880e-01 -2.409586145652482969e+00 -9.934085233962477446e-01 4.691487183995850518e-01 -4.578956159972008777e+00 3.509581302072309228e+00 6.592694715971060271e-01 1.055455418454532168e+00 2.878190818578168386e+00 2.898818266725621928e+00 3.884052224055158486e+00 -2.846564190197529154e+00 -2.448526534690280698e+00 -1.725066382041801905e-01 -1.937300166916167132e+00 -2.991922547877583050e+00 -3.028020839245963991e+00 -3.375101282766872490e+00 -1.328230460251474954e+00 -3.683453710388661317e+00 -2.960800369978886515e-01 -1.529168873783990912e-01 1.455782384405826857e+00 9.579931170839525167e-01 5.873932483407218186e+00 -1.442095886926327841e-01 -5.249337426130073148e+00 -8.783763300103571148e-02 -1.707899639035505235e+00 2.108259515109985216e+00 1.057577607179280177e+00 1.934649359337762942e+00 3.050704141651120693e+00 1.271085630885708806e+00 1.484824539675106081e+00 8.774297525922527541e+00 -9.647546047364145005e-01 2.698977200113051200e+00 -2.848942460818308930e+00 1.082653064163435763e+00 -2.551067793665496630e+00 1.520982480641759560e+00 1.603448564474218241e+00 4.694022291922433365e-01 8.998039055277419485e-02 8.141290846847605289e-01 1.445653265554340150e+00 1.529256291298700443e+00 -3.252394345810140086e-01 7.874261192649794072e-01 -1.084679093622002766e+00 -3.110413389521931471e+00 -9.686920438651444698e+00 -1.827447718387166797e-01 -1.768027462535573413e+00 -2.293475117290939114e+00 5.653702052819610246e-01 -4.011224653351534442e-01 3.685559444051816680e+00 3.837459202935534219e-01 -5.039033511448094416e-01 2.116771409939341098e+00 -9.803279321378225220e+00 -5.723130585664120140e+00 5.740593519779080722e+00 -2.126167250108615292e+00 9.501445669250409010e-01 2.154463271178813422e+00 -5.547037258253466607e-01 -2.618133996730145352e-01 4.065549496536899454e+00 -9.006472274343538809e-01 -1.241632099076618728e-01 -5.648045625397213332e-02 -1.232722711665670490e+00 -5.428869347192869510e-01 -5.333427933074109895e+00 -9.677082882922547480e-01 3.091823797908564986e-01 -3.358220960676419620e-01 -3.085067966683525231e+00 2.796121198885952452e-01 -2.007485118373255162e+00 -1.121050436168683051e+00 -3.216748568635551253e-01 1.556392744747307155e+00 3.514765160694597879e-01 -3.072594001555117860e+00 6.486693266075361786e-01 1.327215902860167329e+00 -8.901668958620038152e-01 -1.330176785505454040e+00 -4.799746576874435178e+00 3.802307077608717112e+00 -1.538571398822037084e+00 1.838745146611715953e+00 1.479069896103830661e+00 -1.403754050753955207e+00 -1.057379632219496379e+00 8.853980133242493888e-01 -1.496667556035578883e+00 -4.873541871689034966e-01 -1.013314005716333455e+00 -1.758598198022439441e+00 -1.242490847603473503e+00 -2.530159066808947976e+00 9.686143451211876032e-01 -1.787004262317036796e-01 -2.998120963891179436e+00 7.896033296019270287e-01 -2.192970686408460157e+00 -2.289705365524249636e+00 -1.305871631092093699e+00 -2.338442686857636232e+00 -2.238762551716802843e-02 1.171994792638153982e+00 2.955897790065693531e+00 -4.857266787332778502e-01 2.003050993494771337e+00 -9.093202790231808663e+00 2.229930297407069162e+00 2.393465841719329745e+00 -3.121545238689205970e+00 -1.952814718894449741e-01 1.701414802106065993e+00 -4.991025869252196379e-01 -7.344804159293297774e-01 2.512830344290100548e+00 -1.069347604203936403e-01 9.206211011041830483e-01 8.877125205813587439e-01 3.926880121394166423e+00 -3.649608734017093070e+00 -1.616078338467078712e+00 -1.183174464328182074e+00 3.571355145952294641e-01 2.997148058374527135e+00 -2.149978238453528423e+00 4.724781430024747486e+00 2.687973391893792474e+00 2.126504578871259987e+00 -2.659306103496415385e+00 -4.191417862202075906e-01 -3.041922795188188200e+00 4.866839005193495993e+00 -2.277424233148878763e+00 1.441131208940472197e+00 -3.224956044825447510e+00 -2.187502463753027371e+00 4.233455402363972553e+00 -1.060621279353203716e+00 1.129202890746379584e+00 2.971368633286620931e+00 -4.662739162952535210e+00 -6.610709408870041770e+00 1.432713930715272310e+00 -3.429392701608377614e+00 -3.049868533054630459e-01 -1.721534714447527925e+00 -4.872290258566660981e+00 -1.621823726066208504e+00 2.837636805062964118e+00 -5.820427822198100953e-01 8.352332153977194418e-01 -3.128946416861073665e+00 -2.373381410604426200e+00 -3.976263303895055667e+00 -2.711908821641997758e+00 -1.477672244309824023e+00 6.297542333070444087e+00 8.023138362407252755e-01 1.556749613895592743e+00 -5.811053579297167371e-01 1.936656362631363981e+00 -2.786236334854978569e+00 3.657899513956301085e+00 1.713411570448292620e+00 -4.989148963789311608e-01 1.955828052048562249e+00 1.011182046798765111e+00 -2.384191871849974387e+00 3.531851685275631425e+00 -9.254326639579428804e-01 -3.851307165706908953e-02 -3.063147253539042048e+00 -1.463918898142605896e+00 1.796692694050251449e+00 -4.593487007799468835e-01 2.247688908410018449e+00 -3.161290897303683067e+00 -1.362026585658940636e+00 8.235025562546827160e+00 -1.692409769649611428e+00 1.210822567348178280e+00 1.534619098715806595e+00 -3.065711672044086900e-01 -1.779164453909596322e+00 2.524687244608792014e+00 -1.524667900217787864e+00 -6.682837600257058863e-01 -2.769659402962635353e-01 8.423418020056469002e-01 -9.307656465759127640e-01 2.826967754502975883e+00 6.760140394294219535e-01 -9.732860399514118299e-01 -1.060838280477953921e+00 6.534186687596496235e+00 4.611137118240043797e+00 -7.527846150682028226e-01 1.380156463989069104e+00 2.037964520428497961e-01 -6.651475281303248499e-01 -1.994367863180719125e+00 1.756835449549351225e+00 -2.039671733068711967e-01 2.150672436364458484e+00 9.800912363612287459e-01 1.826963836732214741e+00 1.791653845658245814e+00 -1.802488989496182858e+00 -7.524164330650723320e-01 -1.771474797939186274e+00 3.094577963842596535e+00 -1.475793281964239201e+00 1.488433854591269645e+00 -6.826377159410474960e-01 6.774887214805080937e+00 -1.202243309610427913e+00 -3.106138158831949880e+00 -1.356576874947799993e+00 3.144637346530800404e+00 -2.497853667137620803e+00 1.294515067489947269e+00 3.343457170883290974e+00 3.193479054661163996e+00 -2.169342246403088481e+00 -2.203876278478839268e+00 -1.173508658304657004e+00 4.072615917049496659e+00 2.390428854414177628e+00 -2.369477961462298055e+00 -4.646071214000759841e-01 -1.464082420317180722e+00 9.130528012130173510e-01 -1.356174754380135017e+00 -2.378498420538995184e+00 -1.261240361846691416e+00 8.122192690986899111e-01 -2.597910211812381132e+00 -8.898645341052430213e-01 -2.487773913470911202e-01 -9.416398711851312608e-01 -1.939497946080105617e+00 -1.819691727949712678e+00 1.659945990010457617e+00 8.013697270818598284e-01 -8.599435757027932281e-01 3.926521709583855824e+00 -1.690105546805997561e+00 2.517865593137382785e+00 2.108933658414599233e+00 3.308854233237121800e+00 2.483457545126948940e+00 5.753435152689942989e-01 7.910354341811426382e-01 1.134367723203702161e+00 1.405665923222724656e+00 -4.403941667537007554e+00 -8.935314417369798479e-01 1.557946205405767115e+00 4.247195378793646725e-01 1.469733191312154075e+00 -9.003849748902245098e-01 -3.658581370571037272e+00 -2.065559144498318567e+00 -3.304111575953780466e+00 3.669541470032941621e+00 -1.287658963233328624e+00 1.130028729150049704e+00 5.515500104270235626e-01 1.859870360372340325e+00 -2.906138712251551959e-01 5.689563802677599647e-01 1.019669824678474868e+01 8.675193317937429427e+00 3.138940295675098024e+00 1.114766659523076076e+00 -2.789632762411789813e+00 -4.838405172982461755e-01 1.694784440725668251e+00 1.649338131710766486e+00 -1.660994485966300060e-01 4.245858405039262262e-01 1.534028773381178379e+00 -2.412276034002169833e-01 -1.356657607593737547e+00 1.985921788597732496e+00 -1.510414217334025144e+00 3.374717159922824283e-01 1.398986710878224793e+00 5.680616362936719010e-01 2.993165419248485781e-01 -2.042641871686144306e+00 5.188368337606092950e-01 -3.734759049771815276e-01 -4.436886243507065508e-01 6.117477679388592937e-02 -1.449901756769234329e-01 2.321614815276008770e+00 4.898584418550006037e-01 -4.146140731789170752e-01 4.887012910705808011e+00 -6.194259053661544279e+00 -3.608680882071335638e+00 -1.493827001028186663e+00 2.585918071456227429e-01 -8.165824315240560738e-01 3.154993236699857651e+00 -6.386332816981815652e-01 -2.367606712426834736e+00 -6.681649750498355189e-01 -5.355968282131682301e-01 1.898284187439179593e+00 -7.253355154493400514e-01 2.389010119572506419e+00 2.343622945935201596e+00 -9.449679073921990469e-01 -3.444841433340289916e-01 -4.475328866931691962e+00 2.087484485628874342e+00 1.337302855616323116e+00 -2.981765146888984419e-01 4.040878217003108119e+00 1.349782991392827480e-01 2.484393940975692772e+00 2.729705999195554345e+00 1.180664038993987752e+00 4.308757877976304718e-02 -2.269381821795581011e+00 -6.344608437210850660e+00 -5.270207586436015390e+00 3.421492215161314299e+00 -1.167646028391681051e-01 8.338545897686793218e-01 3.364038853390690864e+00 5.691132175735627019e-01 -6.144878956484703281e+00 -3.903140609723045051e-02 -7.609761504171815849e-01 2.525732141019910948e+00 1.847363485120748106e+00 -1.597032118894522457e+00 7.427825087233826951e-01 2.007496945448774828e-01 -3.848565855289745929e+00 1.492732225211615527e+00 1.825581611558451112e+00 8.124223862652213413e-02 1.890748283450524314e-01 2.719676124934296446e+00 9.815341395746144393e-01 -2.002415416740764176e+00 -1.955124598165486116e+00 -4.461512271621478343e-01 1.846166893610573956e+00 2.116290613608437621e+00 1.205523523294742994e+00 -5.079563870812259907e+00 -1.596672678642862664e+00 1.486845426926925784e+00 1.626233168352303471e-01 -4.717702153995281811e-01 3.115081999028107007e-01 4.921957290880020430e+00 -7.568799199440849002e+00 -4.604933045799024072e+00 1.200345835320551613e+00 7.544002964283089696e-01 2.511576160064353136e+00 -9.225154900700108795e-01 1.703973049963013242e+00 -1.711141800389887724e+00 4.180447992547351888e+00 1.054584328631483103e+00 6.692664357351785220e-01 6.923302614396601440e-01 1.775917664569140797e+00 3.708621727094274512e+00 -3.213603080768024700e+00 3.408028375233988605e+00 -6.310778373238851158e-01 -1.373879372212234162e-01 1.938337864237839714e+00 -1.870284357477645543e+00 1.468768513326298118e-02 1.962909384960727088e+00 -3.546561996118583693e+00 -3.428129261410484130e-01 -8.260852295936811640e-02 -9.242201316068512362e-01 -2.226740072340838428e-01 -2.221491421913529329e+00 -4.859994213791722473e+00 -3.128399800283800936e+00 1.763576882595497386e+00 3.945887774416114713e-01 -5.128342329799627564e+00 -2.946253067089833699e+00 4.205630921652532828e-01 4.890062239307154890e+00 2.216627922771618575e+00 -4.685784476712726021e-01 -4.640671896915745664e-01 4.576353174916357180e-01 5.385232580732459695e-01 -3.851707229391874598e+00 2.000286543147244078e+00 5.855004020369182216e-01 -1.837087299156278997e+00 -3.646390226813749802e+00 1.387980845776266792e+00 1.915627308136919948e+00 1.544336326806807769e+00 -2.325717267819270295e-02 -5.376490829261484361e-01 2.317865118115635392e-01 -3.189307182326809542e+00 -3.152496181103206840e+00 -1.891766440386555725e+00 -7.226790514435129653e-01 8.378670536938570557e-01 7.155925763246004934e-01 -5.539509067574932555e-01 1.359100155798862897e+00 1.630641582197049022e+00 -4.260092033316709714e-01 2.178475319807558486e-01 1.613132368221359858e+00 1.732744210936692175e+00