-3.572644766234855496e+01 1.131209406414983576e+01 -4.297727835275696151e+01 1.131209406414983576e+01 -1.464723913062900351e+01 1.582761614368865821e+01 -4.297727835275696151e+01 1.582761614368865821e+01 -1.885485499367007023e+01
-1.147231087495722903e+02 -3.673680451108881329e+01 2.638194787849988643e+01 -3.673680451108881329e+01 -5.758951268067502838e+01 -8.556186604916153016e+00 2.638194787849988643e+01 -8.556186604916153016e+00 -8.565429950064995523e+01
-6.875981971866539766e+01 -3.677591956076205482e-01 4.771253089573388451e+01 -3.677591956076205482e-01 -7.550735738668916497e+01 -1.044640410906592010e+01 4.771253089573388451e+01 -1.044640410906592010e+01 -6.325897831572890340e+01
-7.179003876853626309e+01 -1.724537356478961314e+01 -2.802621009250502127e+01 -1.724537356478961314e+01 -4.876502857741141383e+01 -2.895903930688843997e-01 -2.802621009250502127e+01 -2.895903930688843997e-01 -1.033578493004241210e+02
-5.111981771593386981e+01 -1.420265914508561345e+01 -2.871760181121734945e+01 -1.420265914508561345e+01 -1.005262325169718096e+01 -1.125104922491484949e+01 -2.871760181121734945e+01 -1.125104922491484949e+01 -2.375479653956590198e+01
-4.799288837995997881e+01 1.309819135280392466e+01 6.727430251767613889e+00 1.309819135280392466e+01 -3.855834807156659849e+01 -1.957941309339056701e+01 6.727430251767613889e+00 -1.957941309339056701e+01 -4.037765803573185508e+01
-5.740286210133204037e+01 -8.665507367938918293e-01 5.572308912907834033e-01 -8.665507367938918293e-01 -3.870846257601946672e+00 -2.998638128083990750e+01 5.572308912907834033e-01 -2.998638128083990750e+01 -3.839491565028656961e+00
-9.707227214740542820e+01 -3.279545449346936437e+01 -1.041317425315981104e+01 -3.279545449346936437e+01 -1.173720926278483887e+02 9.529629215142117360e+00 -1.041317425315981104e+01 9.529629215142117360e+00 -6.175070501406460011e+01
-9.964448820976295451e+01 -2.061310452206053512e+01 2.363574499918967931e+01 -2.061310452206053512e+01 -6.975432316830257662e+01 -1.669497903485737211e+01 2.363574499918967931e+01 -1.669497903485737211e+01 -7.374063709611409934e+01
-1.233508802589150832e+02 -1.438217169041941901e+01 1.330264701115647430e+00 -1.438217169041941901e+01 -3.939368078669285467e+01 -1.647797365979071316e+01 1.330264701115647430e+00 -1.647797365979071316e+01 -5.387827238297057875e+01
-4.059547510673296955e+01 2.115779049032697401e+01 8.578591733057567836e+00 2.115779049032697401e+01 -6.674590462128672463e+00 2.225587893906404346e+01 8.578591733057567836e+00 2.225587893906404346e+01 -6.777466781020693531e+01
-8.179543529806745994e+01 9.592346794951122746e+00 -7.754835676529905797e+00 9.592346794951122746e+00 -2.552020028501641846e+01 -1.799142916132025150e+01 -7.754835676529905797e+00 -1.799142916132025150e+01 -6.894794738511269827e+01
-6.526707767231553881e+00 5.796192299895766809e+01 -7.823687879907849085e-01 5.796192299895766809e+01 -8.032234492625187627e+00 4.095523326079730708e+01 -7.823687879907849085e-01 4.095523326079730708e+01 -4.197288370682819902e+01
-5.652354510457097803e+01 2.035734147614094366e-02 7.041886828999590620e+00 2.035734147614094366e-02 -3.633008476983382451e+01 -1.321185001834695427e+01 7.041886828999590620e+00 -1.321185001834695427e+01 -6.534947960942034229e+01
-1.138800072906458460e+01 -6.234211326100011163e+00 1.432555446681181621e+01 -6.234211326100011163e+00 -5.025294270796177187e+00 -2.037069283519254093e+00 1.432555446681181621e+01 -2.037069283519254093e+00 -1.004595905086016927e+01
-6.986642624878545860e+01 3.795628823334984414e+00 7.867322667466084773e+00 3.795628823334984414e+00 -1.233805023663841212e+02 -3.991629970000059480e+00 7.867322667466084773e+00 -3.991629970000059480e+00 -6.388013560419820891e+01
-9.993900893346359737e+01 9.297480478155300432e+00 -1.888848960431009871e+01 9.297480478155300432e+00 -3.143629770516947275e+01 2.149362832316416672e+00 -1.888848960431009871e+01 2.149362832316416672e+00 -1.105607439394910045e+02
-1.555166398975733344e+01 -1.984386677905159857e+01 -1.805254131817043728e+01 -1.984386677905159857e+01 -5.268795839220089761e+01 1.290058952477489917e+01 -1.805254131817043728e+01 1.290058952477489917e+01 -8.749797615991290911e+01
-1.057225788101508215e+02 -3.344761520953561984e+01 -1.626141643430765527e+01 -3.344761520953561984e+01 -7.997411651967236423e+01 -4.084561007196728433e+00 -1.626141643430765527e+01 -4.084561007196728433e+00 -9.071440761990730550e+01
-7.722935984661410203e+01 -3.277769974204063907e-01 2.482273520600648098e+01 -3.277769974204063907e-01 -1.079232982840266004e+02 -2.346014145948782215e+00 2.482273520600648098e+01 -2.346014145948782215e+00 -7.053567059355293623e+01
-1.524484244646081699e+01 2.630436664408603420e+01 -4.133543326523985706e-01 2.630436664408603420e+01 -2.786009740599307349e+01 1.420292238229670190e+01 -4.133543326523985706e-01 1.420292238229670190e+01 -1.125633649238052811e+02
-5.270140779001369680e+01 -2.012732123100923332e+01 8.312042315651810398e+00 -2.012732123100923332e+01 -5.219571039975532400e-01 1.071575009945305190e+01 8.312042315651810398e+00 1.071575009945305190e+01 -2.112547056853868099e+01
-4.277430117239190821e+01 3.968244872958259339e+00 -3.312521988643403859e+01 3.968244872958259339e+00 -8.132341217616260565e+01 2.887029127182406185e+01 -3.312521988643403859e+01 2.887029127182406185e+01 -1.014675633328260602e+02
-2.378656535033166719e+01 5.438569142403846257e+01 -1.155658826472416401e+01 5.438569142403846257e+01 -7.117322387489357993e+01 5.030995454127468847e+00 -1.155658826472416401e+01 5.030995454127468847e+00 -1.674763244082404867e+01
1.243217320370717260e+01 -3.249960111360272741e-01 -1.085406000060579146e+01 -3.249960111360272741e-01 -3.567780246718186277e+01 1.909555926010597560e+01 -1.085406000060579146e+01 1.909555926010597560e+01 -1.595591409166418018e+01
-1.075514602547737724e+02 1.852429195801328987e+01 2.776294006278767768e-01 1.852429195801328987e+01 -8.244479686396518048e+01 2.913141159378961831e+01 2.776294006278767768e-01 2.913141159378961831e+01 -8.636900817925619833e+01
-6.642382335124359827e+01 -9.918947498602602053e+00 -1.791858909168789182e+01 -9.918947498602602053e+00 -2.697308053468449884e+01 1.909704386136327869e+01 -1.791858909168789182e+01 1.909704386136327869e+01 -3.729906890717611390e+01
-2.805225258141306455e+01 4.114308605107112271e+00 1.932218664350737525e+00 4.114308605107112271e+00 -5.684336459720083923e+01 -1.136963402200381701e+01 1.932218664350737525e+00 -1.136963402200381701e+01 -3.915967929905780665e+01
-3.931645536640991878e+01 3.911800847554785410e+00 -2.499966587131309126e+01 3.911800847554785410e+00 -9.785454741899413023e+01 1.424381204361262476e+01 -2.499966587131309126e+01 1.424381204361262476e+01 -1.113916284898184372e+01
5.139012050753471783e+00 -6.959844989035616214e-01 4.506092412869755037e+01 -6.959844989035616214e-01 -3.711758318684210423e+01 -2.652940806346918379e+01 4.506092412869755037e+01 -2.652940806346918379e+01 -3.313170960395766684e+01
-3.249982013874137721e+01 -1.164552242946695415e+01 6.372374727358382174e+00 -1.164552242946695415e+01 2.037902824869774676e+01 -1.414802433185164610e+01 6.372374727358382174e+00 -1.414802433185164610e+01 -3.065115031256077316e+01
-2.032181504522841564e+01 -2.656221548544449362e+00 -1.462858186984104236e+01 -2.656221548544449362e+00 5.029517805377198281e-01 4.596878634650456519e+01 -1.462858186984104236e+01 4.596878634650456519e+01 -1.798892655514319827e+01
-1.181838975936681351e+02 -4.293863290139265487e+00 -2.425649184980392548e+01 -4.293863290139265487e+00 -5.835759552349163926e+01 3.127432531998847764e+01 -2.425649184980392548e+01 3.127432531998847764e+01 -4.235526954608918260e+01
-5.197149493261267850e+01 -4.394171698300387874e+01 -1.946834593885083464e+01 -4.394171698300387874e+01 -6.510263470326785296e+01 -2.544956813033266840e+01 -1.946834593885083464e+01 -2.544956813033266840e+01 -7.599050856935014053e+01
-1.985005860990724624e+00 -1.448096000426408558e+01 -1.097941589130912909e+01 -1.448096000426408558e+01 -1.016827791254843447e+02 -1.897410486247297356e+01 -1.097941589130912909e+01 -1.897410486247297356e+01 -4.371802991208154054e+01
-1.497328940808718301e+01 4.324276952258940554e+01 -4.516661133764629632e+00 4.324276952258940554e+01 -7.327255316834936139e+01 4.565454199292326543e+00 -4.516661133764629632e+00 4.565454199292326543e+00 -8.685901506655895332e+01
-8.218427260897958320e+01 -2.952122446735950589e+01 4.228786521191866932e+00 -2.952122446735950589e+01 -2.736026945487460793e+01 -1.502087219996653999e+01 4.228786521191866932e+00 -1.502087219996653999e+01 -1.187607676783582065e+02
-7.158716602857275291e+01 -1.849839778277082658e+01 -8.250594838880429549e+00 -1.849839778277082658e+01 3.541607389376135284e+00 2.496598829976337797e+01 -8.250594838880429549e+00 2.496598829976337797e+01 -7.680953115702125444e+01
-7.254122052093984507e+01 2.895525146989891496e+01 6.001216606500665307e+01 2.895525146989891496e+01 -5.180030771405621692e+01 4.476844296770753573e+01 6.001216606500665307e+01 4.476844296770753573e+01 -2.996788467927264321e+01
-8.325862764169146146e+01 -6.282349264247334197e+00 1.519092112597580524e+01 -6.282349264247334197e+00 -6.294700446947067718e+01 2.099586925264718573e+00 1.519092112597580524e+01 2.099586925264718573e+00 -1.325708825314039814e+02
-5.847567318597468500e+01 -1.909593639465818171e+01 2.524550753485641863e+01 -1.909593639465818171e+01 -2.942343851572043434e+01 -6.341693866329565665e+00 2.524550753485641863e+01 -6.341693866329565665e+00 -5.906091792504838622e+01
-3.460878603632833972e+01 2.575559936259027793e+00 3.737431966859337962e+01 2.575559936259027793e+00 -1.882922253573665472e+01 -4.199483346548278462e+01 3.737431966859337962e+01 -4.199483346548278462e+01 -7.909928980316813352e+01
-9.416459249229816919e+00 -1.597066309305965781e+01 5.235020632783365713e+00 -1.597066309305965781e+01 1.823596916867129991e+01 -7.390266678096431896e+00 5.235020632783365713e+00 -7.390266678096431896e+00 -2.907857292956373030e+01
-4.929373964038651934e+01 -8.340399603894232072e+00 2.178065536865384733e+00 -8.340399603894232072e+00 -2.043412610011078812e+01 2.931982876127707627e+01 2.178065536865384733e+00 2.931982876127707627e+01 -8.299148386701608615e+01
-7.302141916596883675e+01 -1.006187086530523267e+01 2.803188559137442937e+01 -1.006187086530523267e+01 -1.910725727203927082e+00 2.256186511696798291e+01 2.803188559137442937e+01 2.256186511696798291e+01 -2.314295497802621426e+01
-7.686153408687798105e+01 1.379358450372808420e+01 1.141425046742011240e+01 1.379358450372808420e+01 -1.428243922514260760e+02 4.403531253389917133e+00 1.141425046742011240e+01 4.403531253389917133e+00 -1.908563241174735836e+01
-9.764869090934509188e+01 -9.038556745889671618e+00 -2.029023080104519039e+01 -9.038556745889671618e+00 -4.720257198307211866e+01 -3.492319058674833343e+01 -2.029023080104519039e+01 -3.492319058674833343e+01 9.819265385364126075e+00
-9.609219846237714080e+00 1.468649310815189146e+01 -8.742933169957884942e+00 1.468649310815189146e+01 -2.363238799237757348e+01 1.644813450271127664e+01 -8.742933169957884942e+00 1.644813450271127664e+01 -1.543966515698984665e+01
-5.153063553616174630e+01 -5.606153351711359534e+01 -6.251997747836672836e+00 -5.606153351711359534e+01 -8.187489777121984957e+01 -3.466775460478410054e+01 -6.251997747836672836e+00 -3.466775460478410054e+01 -5.224638229122700039e+01
6.540244380478133834e+00 -1.261154881035185404e+01 4.359797479461327185e+01 -1.261154881035185404e+01 -5.914390967628119711e+01 -2.115882796556871526e+01 4.359797479461327185e+01 -2.115882796556871526e+01 -1.131825842474461119e+01
-7.966769180693991359e+01 -1.765036807621871517e+01 2.398467833638855140e+01 -1.765036807621871517e+01 -3.376257521858229893e+01 -5.385840940683251254e+00 2.398467833638855140e+01 -5.385840940683251254e+00 -7.272363447979624596e+01
-5.364305185372342066e+01 1.420356942796463784e+01 -1.125489127693689539e+01 1.420356942796463784e+01 -6.196857619124396166e+01 2.573700579213841877e+01 -1.125489127693689539e+01 2.573700579213841877e+01 -1.273263367072253516e+02
-2.559305877645556393e+01 2.034178643243549800e+01 -1.309207669781424066e+01 2.034178643243549800e+01 2.130470385216761997e+01 -2.542130834185982380e+01 -1.309207669781424066e+01 -2.542130834185982380e+01 -3.679427775090268682e+01
-9.375643835886866384e+01 2.159282041895923854e+01 -3.606976774017100951e+01 2.159282041895923854e+01 -6.726107432822092846e+01 -1.075244804134359988e+01 -3.606976774017100951e+01 -1.075244804134359988e+01 -4.912837766442000031e+01
-1.129790862744677753e+02 1.737575223755596099e+01 2.650701668312042614e+01 1.737575223755596099e+01 -1.020327683666914993e+02 1.698689516070338712e+01 2.650701668312042614e+01 1.698689516070338712e+01 -7.029511028940011386e+01
3.447975051757045151e+01 -2.534005060116671615e+01 3.951657765186707305e+00 -2.534005060116671615e+01 -2.916485168320328825e+01 -9.642268572929953763e+00 3.951657765186707305e+00 -9.642268572929953763e+00 -1.371140639933993022e+01
-9.044617835450226551e+01 1.107333973443149766e+01 2.730711631723511701e+01 1.107333973443149766e+01 -9.116416949044302953e+01 -2.066584490141136499e+01 2.730711631723511701e+01 -2.066584490141136499e+01 -4.784560370548993546e+01
-1.058198486071877120e+01 1.802042844932350718e+01 2.821287817881578786e+00 1.802042844932350718e+01 -2.579808851488285271e+01 1.172862155872365975e+00 2.821287817881578786e+00 1.172862155872365975e+00 -9.648788181895264415e+01
-3.096774769002460559e+01 -7.186967849434445554e+00 6.497437610273743225e+00 -7.186967849434445554e+00 -7.309500494456723629e+01 5.813995711505631547e+00 6.497437610273743225e+00 5.813995711505631547e+00 -2.816483999793411996e+01
-4.292022329935657865e+01 1.130337174861244520e+01 -1.124257157734571066e+01 1.130337174861244520e+01 -8.154898358051200091e+01 -1.585998539244974914e-01 -1.124257157734571066e+01 -1.585998539244974914e-01 -5.418174594059444615e+01
-1.765215376335592623e+01 -1.188698743427218751e+01 1.267678015262277569e+01 -1.188698743427218751e+01 -2.328693766714918212e+01 -2.381302099332307165e+01 1.267678015262277569e+01 -2.381302099332307165e+01 -1.110237089975306191e+02
-7.420631865027867491e+01 9.255932082003843320e+00 1.557880022959558808e+01 9.255932082003843320e+00 -9.837991495779712636e+01 -2.299763955925882529e-03 1.557880022959558808e+01 -2.299763955925882529e-03 -7.962075977114285763e+01
-2.128510153910170999e+01 -1.633117613051950201e+01 1.816893767658679337e+01 -1.633117613051950201e+01 -8.483429503723959897e+01 -1.118686282002842702e+01 1.816893767658679337e+01 -1.118686282002842702e+01 -1.134517117732706026e+02
-1.377955768044544698e+02 -1.537650227758443933e+01 2.185520417456413256e+01 -1.537650227758443933e+01 -6.203288195236191171e+01 3.144756832116772216e+01 2.185520417456413256e+01 3.144756832116772216e+01 -7.965750884813870414e+01
-4.445799499548897415e+01 5.933115804567763973e+01 -2.831341435238651627e+01 5.933115804567763973e+01 -3.190319471364818327e+01 -3.050984686601865548e+01 -2.831341435238651627e+01 -3.050984686601865548e+01 3.371127834667078815e+01
-2.012935326722529084e+01 -3.038547467076830344e+01 -1.746234453910195583e+01 -3.038547467076830344e+01 -9.544662815473839146e+01 -3.782355469079781329e+01 -1.746234453910195583e+01 -3.782355469079781329e+01 -2.689640160545204495e+01
-6.299108267226609570e+01 -2.888648501629043963e+01 -2.957657474164282707e+00 -2.888648501629043963e+01 -2.671155296386558575e+01 9.145822476119189304e+00 -2.957657474164282707e+00 9.145822476119189304e+00 -6.865536262393263200e+01
-9.252931777386203294e+01 3.626512259777060621e+01 -4.237637867584896911e-01 3.626512259777060621e+01 -9.935993326539058046e+01 -6.351068523053616133e+01 -4.237637867584896911e-01 -6.351068523053616133e+01 -1.048520150225876932e+02
-2.417973590141593121e+01 -1.180251350858010362e+01 1.343007056842034030e+00 -1.180251350858010362e+01 -4.406097918066330976e+01 -2.045652657097734206e+01 1.343007056842034030e+00 -2.045652657097734206e+01 -6.437251072002449348e+01
-4.746620157585045519e+01 -1.544380212093925664e+01 8.683697448142325692e-01 -1.544380212093925664e+01 -9.549368798605034669e+01 2.974341171734921829e+01 8.683697448142325692e-01 2.974341171734921829e+01 -3.679870993972132709e+01
-6.306305204299760447e+01 2.666840861001583107e+01 -2.284382938280340269e+01 2.666840861001583107e+01 -9.939085916491531236e+01 1.899307838948550753e+01 -2.284382938280340269e+01 1.899307838948550753e+01 -6.514720219459729833e+01
-5.550348482949666362e+01 1.002005905256548601e+01 -1.450799408742202523e+01 1.002005905256548601e+01 -4.535420805912750097e+01 3.866468881135662627e+01 -1.450799408742202523e+01 3.866468881135662627e+01 -4.960064783005089595e+01
3.601710169004227424e+01 -4.773995226921464941e+00 -5.624050477450779795e+01 -4.773995226921464941e+00 -5.900931974927971879e+01 -1.436146447443244867e+01 -5.624050477450779795e+01 -1.436146447443244867e+01 -5.410957095727177801e+01
-4.632298427228904103e+01 -9.655772820271303347e-01 2.403973831795330796e+01 -9.655772820271303347e-01 -6.071566615130117839e+01 2.664118159308862133e+01 2.403973831795330796e+01 2.664118159308862133e+01 -3.874165329654754686e+01
-1.239339359695831462e+02 -3.988337233987853381e+01 -3.487250411417733176e+01 -3.988337233987853381e+01 -1.997289896539824952e+02 -2.492217413586197861e+00 -3.487250411417733176e+01 -2.492217413586197861e+00 -1.200857719408421218e+02
-1.155514786352137548e+02 -8.975498489899711885e+00 1.526516362415017092e+01 -8.975498489899711885e+00 -7.264229016728194210e+01 -3.186681385587442250e+01 1.526516362415017092e+01 -3.186681385587442250e+01 -9.011639397499561710e+01
-4.481774219873599208e+01 -7.573441328079421275e+00 2.434491126058509280e+01 -7.573441328079421275e+00 -9.685176513984508517e+00 -1.423242597084042105e+00 2.434491126058509280e+01 -1.423242597084042105e+00 -9.263773570004521218e+01
-4.167102381857598914e+01 2.247960200734062752e+01 -1.766924650317449519e+01 2.247960200734062752e+01 -1.025152205276663580e+02 -3.601683745313326312e+01 -1.766924650317449519e+01 -3.601683745313326312e+01 -4.502092393204761578e+01
-7.703436030334269446e+01 -2.713086629317234966e+01 7.332032255077793437e+00 -2.713086629317234966e+01 -3.871908082729294875e+01 4.763891101117709326e+01 7.332032255077793437e+00 4.763891101117709326e+01 -5.461094297102191319e+01
-3.583571880058212145e+01 1.153944084172790951e+01 2.598312413418375755e+01 1.153944084172790951e+01 -4.711784455349161505e+01 -7.011116157918820813e-01 2.598312413418375755e+01 -7.011116157918820813e-01 -5.677741312768520743e+01
-7.409500668543660140e+01 1.496846732349983355e+01 3.579592663666306152e+01 1.496846732349983355e+01 -3.030903301490511481e+01 -3.851740366389545045e+01 3.579592663666306152e+01 -3.851740366389545045e+01 -6.039942301003755176e+01
-1.446341327733757964e+02 2.730839182425258471e+01 -2.783972228948963590e+01 2.730839182425258471e+01 -1.782700043650705979e+01 -2.213568038595770204e+01 -2.783972228948963590e+01 -2.213568038595770204e+01 -1.041252235909146151e+02
1.679193840767069901e+01 4.158383771974420284e+01 1.626514621037191333e+01 4.158383771974420284e+01 -4.143964630809139749e+01 -2.938309866923757596e+01 1.626514621037191333e+01 -2.938309866923757596e+01 -7.693160327114654251e+01
-8.961259489442331017e+01 7.364709214378142299e-01 1.467214478585305493e+01 7.364709214378142299e-01 -7.901581283973966663e+01 2.212996247855523180e+01 1.467214478585305493e+01 2.212996247855523180e+01 -1.115299660383755480e+02
-4.459846544779630761e+01 1.306593959273063099e+01 -2.953836134114109413e+01 1.306593959273063099e+01 -8.855396317039210885e+01 4.700871471461844919e+01 -2.953836134114109413e+01 4.700871471461844919e+01 -6.359675221362861208e+01
-7.983023101600805660e+01 4.098728915605070711e+01 -1.659724901598516311e+01 4.098728915605070711e+01 -8.049691637552149359e+01 1.570733241596134100e+01 -1.659724901598516311e+01 1.570733241596134100e+01 -5.457213604593503931e+01
-1.026361812796221074e+02 2.398703485391185453e+01 1.186310466709027445e+01 2.398703485391185453e+01 -1.127135958620115730e+02 5.623591231554655678e+01 1.186310466709027445e+01 5.623591231554655678e+01 -4.197837067807775924e+01
-5.606683503538060620e+01 -1.154451910612901777e+01 3.312845785921821573e+01 -1.154451910612901777e+01 -6.814800595808961248e+01 3.950476083570426233e+00 3.312845785921821573e+01 3.950476083570426233e+00 -1.523989429446626076e+01
-1.010295769473527798e+02 -5.902143638389438962e+01 3.208514861858325418e+01 -5.902143638389438962e+01 -4.865553827232222517e+01 1.742718051835584347e+01 3.208514861858325418e+01 1.742718051835584347e+01 -2.120729744350976276e+01
-8.665022341677185125e+01 2.327420974700106981e+01 -2.843447079674480804e+01 2.327420974700106981e+01 -5.599847655151682346e+01 -9.970207886432329303e-02 -2.843447079674480804e+01 -9.970207886432329303e-02 -4.873923706621263818e+01
-6.245828697653512762e+01 3.003763513055973178e+01 6.738017064580984261e+00 3.003763513055973178e+01 -1.186369602451038929e+01 -6.649725524701225465e-01 6.738017064580984261e+00 -6.649725524701225465e-01 -1.433447730173251387e+02
-2.735364499940521910e+01 1.696724622343446676e+00 4.914804139764155644e-01 1.696724622343446676e+00 -4.121416814730749678e+01 -6.672888550138300623e+00 4.914804139764155644e-01 -6.672888550138300623e+00 -5.775918486280995268e+01
-7.619687373236787664e+01 2.910403339141890644e+00 -2.819908472250679310e+01 2.910403339141890644e+00 -1.098439521890958446e+02 -2.796148815025581058e+01 -2.819908472250679310e+01 -2.796148815025581058e+01 -7.762612525388607310e+01
-6.952406289991299104e+01 -4.215121294492877979e+00 2.030183826271308334e+00 -4.215121294492877979e+00 -5.781877439330326496e+01 -2.048085284660351846e+01 2.030183826271308334e+00 -2.048085284660351846e+01 -3.547412615073329789e+01
-5.517164471392936775e+01 2.534028975832906028e+01 2.674070717659294516e+01 2.534028975832906028e+01 -5.735085365497666032e+01 5.441043621022517707e-01 2.674070717659294516e+01 5.441043621022517707e-01 -2.887215958322364528e+01
-5.525035881331848309e+00 -3.161801199594236333e+00 -6.753484935903815156e-01 -3.161801199594236333e+00 1.473644528335317894e+01 2.754614927296572091e+00 -6.753484935903815156e-01 2.754614927296572091e+00 -8.837325912272279993e+01
-3.293351880046120783e+01 3.573981072592600672e+00 2.321026899140883160e+01 3.573981072592600672e+00 -3.691972544814802859e+01 -2.552155354028265677e+01 2.321026899140883160e+01 -2.552155354028265677e+01 -5.012186320285952235e+01
-3.683203857506149603e+01 7.442184495787871334e+00 1.782631710465384245e+01 7.442184495787871334e+00 -9.462772577729214163e+01 9.426714161272780501e+00 1.782631710465384245e+01 9.426714161272780501e+00 -4.860908704136231506e+01
-8.647508738290099473e+01 1.694634854079502162e+01 -1.006061218825392345e+01 1.694634854079502162e+01 -1.197423274138782432e+02 -6.096222513293125811e-01 -1.006061218825392345e+01 -6.096222513293125811e-01 -5.111726648845262133e+01
-4.380701402996324134e+01 2.042699834187724051e+00 -2.192227601141344095e+01 2.042699834187724051e+00 -5.358981381462547233e+01 -2.230406083383110882e+01 -2.192227601141344095e+01 -2.230406083383110882e+01 -4.513282262145533963e+01
-6.702403564074754172e+01 -1.132799106102231512e+01 1.022812806167374156e+01 -1.132799106102231512e+01 -3.840527584713682785e+01 -1.382344863550911818e+01 1.022812806167374156e+01 -1.382344863550911818e+01 -8.365663144957892428e+01
-8.513872131295674706e+01 -1.759778603001158848e+00 -1.638441521785931698e+01 -1.759778603001158848e+00 -3.874532671029042064e+01 -5.436143795848705551e+00 -1.638441521785931698e+01 -5.436143795848705551e+00 -4.828791548767236463e+01
-1.036544912926005253e+02 3.667746069899376948e+01 2.564434954816662682e+01 3.667746069899376948e+01 -1.098456178355425550e+02 8.882888814011387524e+00 2.564434954816662682e+01 8.882888814011387524e+00 -6.272298719989613858e+01
-8.221212041870808207e+01 5.435339248702691606e+01 3.766115177372427780e+01 5.435339248702691606e+01 -7.599725884807200771e+01 4.443251119132294313e+00 3.766115177372427780e+01 4.443251119132294313e+00 -5.178351167870732041e+01
1.997647963541606231e+00 -1.059171987723591712e+01 4.529131700304062491e+01 -1.059171987723591712e+01 -6.119067073621714314e+01 -1.934710104376444662e+01 4.529131700304062491e+01 -1.934710104376444662e+01 -1.095081603523075700e+02
-6.243689672516483213e+00 -6.279884433078944284e+00 3.383636453837559799e+01 -6.279884433078944284e+00 -3.903429925474528517e+01 3.230549232240937130e+01 3.383636453837559799e+01 3.230549232240937130e+01 -7.367818841128234908e+01
-1.202368794629508386e+01 -1.968760270077806496e+01 1.721136638101753391e+01 -1.968760270077806496e+01 -2.927568409479957001e+00 2.039129487929995577e+01 1.721136638101753391e+01 2.039129487929995577e+01 -4.684772640386815823e+01
-2.388915055881564342e+01 -5.171847497598883736e-01 -4.676623984586619542e+01 -5.171847497598883736e-01 -1.470814367843561570e+02 -2.299227150317834756e+01 -4.676623984586619542e+01 -2.299227150317834756e+01 -6.771392159614960349e+01
-1.434195772642744870e+01 -1.092015795020181557e+01 -7.114406674754039095e+00 -1.092015795020181557e+01 1.050483584253701030e+00 -9.086213899805359873e+00 -7.114406674754039095e+00 -9.086213899805359873e+00 -9.282445376844881935e+01
-2.579173501508919131e+01 9.039120287419342148e+00 9.186229222017926688e+00 9.039120287419342148e+00 -1.924641916944398545e+01 -2.357883930117386839e+00 9.186229222017926688e+00 -2.357883930117386839e+00 -4.533370309067621662e+01
-1.393459270759493904e+02 7.150998431161328028e+01 -3.789374691012360330e+01 7.150998431161328028e+01 -6.861716573018088638e+01 -3.242946205377083402e+01 -3.789374691012360330e+01 -3.242946205377083402e+01 -4.626833471614123283e+00
-7.887575061467059356e+01 1.810736201262066203e+01 4.698044682055061827e+01 1.810736201262066203e+01 -7.537673400416601055e+01 -2.921497143559933285e+00 4.698044682055061827e+01 -2.921497143559933285e+00 -9.637025006435477792e+01
-7.421606880486196189e+01 -1.569299657729158604e+01 1.680154967832806889e+01 -1.569299657729158604e+01 -5.376951657477202673e+01 -1.032142443126788400e+01 1.680154967832806889e+01 -1.032142443126788400e+01 -4.601244056091357493e+01
-1.040693352981743089e+02 -3.254611718521008612e+01 4.302750836144126367e+01 -3.254611718521008612e+01 -5.928638207665693471e+01 -5.309647950340605860e+01 4.302750836144126367e+01 -5.309647950340605860e+01 -9.771846815583290891e+01
-4.726041351096905885e+01 3.671893505578643158e+01 1.775221352377309003e+01 3.671893505578643158e+01 -3.288182385764107352e+01 -2.198193206067718108e+01 1.775221352377309003e+01 -2.198193206067718108e+01 -5.564615400463486594e+01
-4.204238541834761378e+01 -2.786538013716949536e+01 -2.442557589093345172e+01 -2.786538013716949536e+01 -5.100510363209678388e+01 4.329208292943250314e+01 -2.442557589093345172e+01 4.329208292943250314e+01 -3.103132039450217405e+01
-4.173374930417939055e+01 3.681144566633655302e+01 1.554423718050577463e+01 3.681144566633655302e+01 -1.757990933016014168e+01 1.592491685512541943e+00 1.554423718050577463e+01 1.592491685512541943e+00 1.045602283377912833e+01
-8.567999761401411263e+01 -1.320098905641030029e+01 1.711146424912545783e+01 -1.320098905641030029e+01 -1.186960764746211368e+02 -1.602872609688596128e+01 1.711146424912545783e+01 -1.602872609688596128e+01 -5.908575445243341306e+01
-3.055555776400621326e+01 4.330101370479616740e+00 -3.662927325929206290e+01 4.330101370479616740e+00 -8.988108527627993283e+01 -2.995916890432667401e+00 -3.662927325929206290e+01 -2.995916890432667401e+00 -6.392757057066069848e+01
-8.028919345139894403e+01 1.820324653368825807e+01 9.272487666229869419e+00 1.820324653368825807e+01 -6.452193265320701698e+01 1.248721340186382101e+01 9.272487666229869419e+00 1.248721340186382101e+01 -1.179089174221531344e+01
-8.970441496358260380e+00 -1.831931523298108377e+00 5.910503270319520830e+00 -1.831931523298108377e+00 -6.476981814142607163e+01 1.462182661908554060e+01 5.910503270319520830e+00 1.462182661908554060e+01 -5.083373886446256051e+01
3.342395614574559204e+01 -2.772147085443424785e+01 2.729153609237388700e+00 -2.772147085443424785e+01 -2.099293236453711842e+01 1.797119270400538937e+01 2.729153609237388700e+00 1.797119270400538937e+01 1.773152702073510723e+00
7.406271417172234806e+00 1.270402494784032932e+01 4.093239775949680137e+01 1.270402494784032932e+01 -2.890726967430178984e+00 -6.111729441520882489e+00 4.093239775949680137e+01 -6.111729441520882489e+00 3.709652171614420268e+01
-7.904073754431307464e+01 7.854811558797443638e+00 -1.325157073592308876e+01 7.854811558797443638e+00 -7.909063976263928453e+01 1.639113859629467385e+01 -1.325157073592308876e+01 1.639113859629467385e+01 -3.578795880002088126e+01
-8.536917132885407966e+01 -1.539572194509071856e+01 6.470072227028227374e+00 -1.539572194509071856e+01 -7.049900861143812847e+01 2.912920412297014749e+01 6.470072227028227374e+00 2.912920412297014749e+01 -9.337805058520717694e+01
3.178440651500097913e-01 1.177063050064695737e+01 3.793031100730677707e+01 1.177063050064695737e+01 -7.543489079635445194e+01 -8.477235309688014198e+00 3.793031100730677707e+01 -8.477235309688014198e+00 4.795875738477938910e+01
6.858184341581204713e+00 -1.011168334730785112e+01 -4.080878129670796994e+01 -1.011168334730785112e+01 -1.624102575439584939e+01 4.932928085707381882e+01 -4.080878129670796994e+01 4.932928085707381882e+01 -1.064039429498970257e+01
-8.785036875252652067e+01 -4.823479270646677008e+01 -5.191091056841804274e+00 -4.823479270646677008e+01 -1.936636748088144344e+01 -1.885735414296975776e+01 -5.191091056841804274e+00 -1.885735414296975776e+01 -7.528095852141780142e+01
-2.193913294711353856e+01 4.050971202809053295e+01 -2.894836957413407674e+01 4.050971202809053295e+01 -2.509636633769081726e+01 -1.329851662269724777e+01 -2.894836957413407674e+01 -1.329851662269724777e+01 -4.491767679631217902e+01