7.306377999999999595e+00 6.088078000000000323e+00 1.421748000000000012e+00 2.634567999999999799e+00 1.522488799999999998e+01 1.336648000000000058e+00 5.673388000000000098e+00 4.139888000000000012e+00 7.308067999999999564e+00 1.293858799999999931e+01 6.019318000000000168e+00 3.642888000000000126e+00 1.277758799999999972e+01 1.238898799999999945e+01 1.043393999999999933e+00 1.052048800000000028e+01 1.195217999999999892e+00 6.886738000000000248e+00 1.454718800000000023e+01 8.114898000000000167e+00 1.313028800000000018e+01 6.369197999999999915e+00 1.188808799999999977e+01 2.869618000000000002e+00 3.790068000000000215e+00 7.046488000000000085e+00 1.417038800000000087e+01 5.306968000000000352e+00 5.585878000000000121e+00 2.484258000000000077e+00 7.845087999999999617e+00 4.383358000000000310e+00 8.633257999999999655e+00 9.313997999999999777e+00 1.569147999999999987e+00 8.057029999999999470e-01 1.567448800000000020e+01 2.681357999999999908e+00 2.868948000000000054e+00 5.768938000000000343e+00 8.268178000000000694e+00 1.462328800000000051e+01 8.451427999999999940e+00 1.613988799999999912e+01 1.501688799999999979e+01 3.301428000000000029e+00 5.069078000000000195e+00 1.540908800000000056e+01 1.462378799999999934e+01 6.729808000000000234e+00 2.357047999999999810e+00 9.567408000000000357e+00 5.127468000000000359e+00 7.071757999999999988e+00 1.723057999999999979e+00 7.998167999999999722e+00 3.930358000000000018e+00 2.651088000000000111e+00 2.466550000000000131e-01 1.367398799999999959e+01 7.039068000000000325e+00 8.294007999999999825e+00 1.083648799999999923e+01 1.039922999999999931e+00 4.685938000000000159e+00 1.240758800000000051e+01 1.145298799999999950e+01 9.682427999999999813e+00 4.843717999999999968e+00 7.167817999999999579e+00 9.750707999999999487e+00 1.292098799999999947e+01 5.765488000000000390e+00 4.310499999999999887e-01 2.149188000000000098e+00 9.698957999999999302e+00 1.384608799999999995e+01 6.044177999999999606e+00 2.280257999999999896e+00 1.322398800000000030e+01 1.309678800000000010e+01 4.985678000000000054e+00 8.350557999999999481e+00 6.815127999999999631e+00 4.504508000000000401e+00 1.424668800000000068e+01 1.133508800000000072e+01 1.192438000000000109e+00 8.464418000000000220e+00 9.979357999999999507e+00 5.121027999999999913e+00 4.378159999999999830e-01 5.650807999999999609e+00 8.288448000000000704e+00 1.209918799999999983e+01 1.208828800000000037e+01 1.099548799999999993e+01 1.611278799999999833e+01 8.934727999999999781e+00 6.802908000000000399e+00 1.766677999999999971e+00 1.493378799999999984e+01 9.360137999999999181e+00 8.203230000000000244e-01 1.121868800000000022e+01 1.113538800000000073e+01 7.426898000000000444e+00 3.176038000000000139e+00 7.966018000000000043e+00 6.573068000000000133e+00 9.648398000000000252e+00 7.993237999999999843e+00 1.016598800000000047e+01 2.420377999999999918e+00 1.589178800000000003e+01 1.001904799999999973e+01 9.514227999999999241e+00 1.033058800000000055e+01 8.788817999999999131e+00 1.551428000000000029e+00 4.731907999999999781e+00 2.058638000000000190e+00 1.324748800000000060e+01 9.725288000000000821e+00 2.298747999999999791e+00 3.367338000000000164e+00 1.952228000000000074e+00 1.118848799999999954e+01 9.593580000000000441e-01 1.456118799999999958e+01 6.199000000000000066e-01 1.343248799999999932e+01 1.565548800000000007e+01 6.187147999999999648e+00 1.410038800000000059e+01 9.061388000000000886e+00 1.354988799999999927e+01 1.694137999999999922e+00 4.252697999999999645e+00 1.059018799999999949e+01 2.389648000000000216e+00 1.780018000000000100e+00 1.598387999999999920e+00 1.007373800000000053e+01 8.481097999999999359e+00 3.775837999999999806e+00 1.614558800000000005e+01 4.074078000000000088e+00 1.088289000000000062e+00 7.996779999999999999e-01 3.791208000000000133e+00 7.880297999999999803e+00 2.659138000000000002e+00 6.682628000000000235e+00 1.417348800000000075e+01 2.769838000000000022e+00 1.132048799999999922e+01 4.406357999999999997e+00 1.112048799999999993e+01 1.073858800000000002e+01 1.226448800000000006e+01 2.751187999999999967e+00 1.155268799999999985e+01 1.466758800000000029e+01 7.649078000000000266e+00 3.494769999999999821e-01 1.230818799999999946e+01 9.517668000000000461e+00 2.016118000000000077e+00 1.496528799999999926e+01 4.032397999999999705e+00 1.310588800000000020e+01 1.231558799999999998e+01 1.277478799999999914e+01 3.936647999999999925e+00 9.740387999999999380e+00 4.714427999999999841e+00 1.887157999999999891e+00 1.484968800000000044e+01 6.647747999999999990e+00 1.246798800000000007e+01 3.274178000000000033e+00 9.466988000000000625e+00 3.389838000000000129e+00 3.310947999999999780e+00 7.112810000000000521e-01 1.499698799999999999e+01 1.055898799999999937e+01 1.371858800000000045e+01 6.723957999999999657e+00 1.301978800000000014e+01 1.047578799999999966e+01 8.705118000000000578e+00 1.612138799999999961e+01 5.546937999999999924e+00 1.335278800000000032e+01 9.931649999999999645e-01 1.000442800000000076e+01 4.085688000000000208e+00 2.524817999999999785e+00 1.126228799999999985e+01 9.485100000000000475e-02 6.151597999999999900e+00 4.126580000000000248e-01 8.636438000000000059e+00 5.855328000000000088e+00 4.811607999999999663e+00 1.087738799999999983e+01 1.062648800000000016e+01 1.624678799999999868e+01 1.175018799999999963e+01 5.360547999999999647e+00 8.088858000000000104e+00 1.405168800000000040e+01 6.260507999999999740e+00 5.759768000000000221e+00 3.955697999999999936e+00 2.782707999999999959e+00 5.847348000000000212e+00 7.043128000000000277e+00 8.784048000000000300e+00 8.475168000000000035e+00 1.407178799999999974e+01 1.427008799999999944e+01 1.283658800000000078e+01 1.046548800000000057e+01 1.444328800000000079e+01 1.431088800000000028e+01 4.752759999999999763e-01 5.307899999999999840e-01 3.451697999999999933e+00 1.525028799999999940e+01 7.824317999999999884e+00 4.490097999999999701e+00 6.699408000000000030e+00 8.522757999999999612e+00 6.429859999999999465e-01 6.737458000000000169e+00 8.669050000000000367e-01 4.305488000000000426e+00 1.973387999999999920e+00 2.852237999999999829e+00 1.350918799999999997e+01 2.397337999999999969e+00 6.773387999999999742e+00 1.181788799999999995e+01 4.111087999999999631e+00 4.755767999999999773e+00 4.501298000000000243e+00 1.369928799999999924e+01 2.771218000000000181e+00 4.157828000000000301e+00 1.557828800000000058e+01 1.201047999999999893e+00 1.132938799999999979e+01 4.783527999999999558e+00 6.292148000000000074e+00 6.160327999999999804e+00 1.082748800000000067e+01 1.267768799999999985e+01 1.262038800000000016e+01 1.324158800000000014e+01 9.142108000000000345e+00 1.120778800000000075e+01 1.366188799999999937e+01 1.074958799999999925e+01 1.593218800000000002e+01 3.818268000000000217e+00 2.043010000000000104e-01 1.038578799999999980e+01 1.524168799999999990e+01 8.083458000000000254e+00 9.164668000000000703e+00 1.035968800000000023e+01 1.150568799999999925e+01 5.152218000000000409e+00 1.171908799999999928e+01 2.709337999999999802e+00 5.308957999999999622e+00 2.615770000000000040e-01 1.320558800000000055e+01 1.171648800000000001e+01 1.530218799999999924e+01 7.358599999999999863e-02 1.587318000000000007e+00 1.336168799999999912e+01 6.412058000000000035e+00 8.404187999999999548e+00 1.422618800000000050e+01 5.175570000000000448e-01 1.577798800000000057e+01 3.681598000000000148e+00 1.076268800000000070e+01 8.913057999999999481e+00 1.391748800000000053e+01 1.538868800000000014e+01 8.372668000000000887e+00 9.809977999999999199e+00 1.279248800000000053e+01 1.606268800000000141e+01 1.155958000000000041e+00 4.266487999999999836e+00 1.446908000000000083e+00 2.818800000000000125e-02 1.438918800000000076e+01 7.996208000000000204e+00 4.427317999999999643e+00 1.456418799999999969e+01 6.967857999999999663e+00 2.752517999999999798e+00 1.419128800000000012e+01 1.517268800000000084e+01 1.329928800000000066e+01 1.475168799999999969e+01 7.167649999999999855e-01 5.512438000000000393e+00 1.246518799999999949e+01 8.424948000000000548e+00 1.160988799999999976e+01 6.327668000000000070e+00 3.987438000000000038e+00 1.118308799999999970e+01 2.113548000000000204e+00 6.374278000000000333e+00 4.206987999999999950e+00 3.110167999999999822e+00 1.249398799999999987e+01 4.864677999999999614e+00 1.139288799999999924e+01 8.770098000000000837e+00 1.254028800000000032e+01 9.708678000000000807e+00 1.043038800000000066e+01 1.273258799999999979e+01 1.931227999999999945e+00 9.255098000000000269e+00 1.402078799999999958e+01 7.046488000000000085e+00 9.265138000000000318e+00 4.793917999999999680e+00 1.535498800000000053e+01 1.080688800000000072e+01 1.477538799999999952e+01 9.280087999999999226e+00 9.472718000000000416e+00 2.909647999999999790e+00 1.138788800000000023e+01 1.891448000000000018e+00 5.820047999999999888e+00 1.508118799999999915e+01 2.183288000000000117e+00 3.325007999999999964e+00 1.352828799999999987e+01 1.207228800000000035e+01 1.232618800000000014e+01 4.288117999999999874e+00 8.842007999999999868e+00 1.144148799999999966e+01 8.051498000000000488e+00 2.145217999999999847e+00 3.773528000000000215e+00 4.690188000000000024e+00 4.017870000000000053e-01 3.855627999999999833e+00 2.256177999999999795e+00 7.274500000000000410e-02 6.158818000000000126e+00 1.313568800000000003e+01 3.504437999999999942e+00 1.490278799999999926e+01 7.376018000000000185e+00 5.722287999999999819e+00 7.108127999999999780e+00 7.401748000000000438e+00 1.460128000000000092e+00 4.711949999999999750e-01 1.653467999999999938e+00 1.048078800000000044e+01 1.391978800000000049e+01 1.566978800000000049e+01 1.318368800000000007e+01 3.864937999999999985e+00 1.466468000000000105e+00 5.429547999999999597e+00 9.193678000000000239e+00 4.320447999999999844e+00 8.263137999999999650e+00 4.674368000000000301e+00 1.300478000000000023e+00 1.077758799999999972e+01 8.003268000000000271e+00 7.736688000000000009e+00 8.655697999999999226e+00 4.186647999999999925e+00 5.796959999999999891e-01 1.327548799999999929e+01 1.262488000000000055e+00 5.515007999999999910e+00 8.541220000000000478e-01 8.505038000000000764e+00 5.765597999999999779e+00 6.123478000000000421e+00 1.383628799999999970e+01 1.152348800000000040e+01 7.668890000000000429e-01 9.646397999999999584e+00 1.262488800000000033e+01 5.423148000000000302e+00 5.056377999999999595e+00 4.595717999999999748e+00 3.392538000000000054e+00 1.452468000000000092e+00 1.491119999999999945e-01 4.426688000000000400e+00 2.474708000000000130e+00 3.314110000000000111e-01 9.585157999999999845e+00 9.228868000000000293e+00 1.500548799999999972e+01 1.467598800000000026e+01 1.074348799999999926e+01 1.137308799999999920e+01 3.823357999999999812e+00 3.985870000000000246e-01 1.877607999999999944e+00 3.143257999999999885e+00 4.480258000000000074e+00 7.182698000000000249e+00 7.134438000000000279e+00 6.745998000000000161e+00 1.283178799999999953e+01 9.077287999999999357e+00 1.086738800000000005e+01 9.260028000000000148e+00 5.949780000000000069e-01 6.647268000000000399e+00 8.966608000000000800e+00 1.188238800000000062e+01 1.620668799999999976e+01 3.816777999999999782e+00 1.915397999999999934e+00 2.221238000000000046e+00 5.308798000000000350e+00 1.206668799999999919e+01 1.536828799999999973e+01 9.200877999999999446e+00 1.336828799999999973e+01 8.231828000000000145e+00 5.154977999999999838e+00 3.009689999999999865e-01 8.587977999999999668e+00 1.331878799999999963e+01 5.044530000000000403e-01 4.644987999999999673e+00 9.472588000000000008e+00 6.020868000000000109e+00 1.362728800000000007e+01 8.151628000000000540e+00 1.202298799999999979e+01 3.014107999999999787e+00 1.431378800000000062e+01 3.452549999999999786e-01 2.416078000000000170e+00 7.853568000000000104e+00 1.072768800000000056e+01 2.820958000000000077e+00 1.007806800000000003e+01 8.303737999999999175e+00 6.333628000000000036e+00 5.108857999999999677e+00 1.703678000000000026e+00 9.639830000000000343e-01 1.367858799999999952e+01 1.285958800000000046e+01 9.850127999999999773e+00 1.143618799999999958e+01 1.577108800000000066e+01 1.225258799999999937e+01 1.045968799999999987e+01 1.566188799999999937e+01 5.718437999999999910e+00 5.432597999999999594e+00 6.500708000000000375e+00 9.446208000000000382e+00 7.790300000000000002e-01 6.082997999999999905e+00 2.163428000000000129e+00 7.398337999999999859e+00 2.732257999999999853e+00 7.881768000000000107e+00 1.132648799999999945e+01 3.292727999999999877e+00 7.713277999999999857e+00 7.174877999999999645e+00 1.108118799999999915e+01 1.524598800000000054e+01 1.492498800000000081e+01 8.651787999999999812e+00 8.679667999999999495e+00 5.997168000000000276e+00 3.602857999999999894e+00 7.968218000000000245e+00 1.240508799999999923e+01 1.073898800000000087e+01 6.451978000000000435e+00 8.924388000000000432e+00 7.089178000000000424e+00 5.126108000000000331e+00 1.348788799999999988e+01 7.500107999999999997e+00 5.934937999999999825e+00 2.256918000000000202e+00 1.410768799999999956e+01 1.602938800000000086e+01 1.127208800000000011e+01 9.161898000000000764e+00 9.115208000000000865e+00 1.571538000000000102e+00 2.324078000000000088e+00 7.647859999999999658e-01 9.558158000000000598e+00 1.033008799999999994e+01 7.390328000000000230e+00 1.117138800000000032e+01 1.289268799999999970e+01 1.431138800000000089e+01 1.131568799999999975e+01 1.263718800000000009e+01 1.423748800000000081e+01 1.323947999999999903e+00 1.100508800000000065e+01 1.574698799999999999e+01 1.084141000000000021e+00 1.260228799999999971e+01 1.498608800000000052e+01 1.401158799999999971e+01 1.155878799999999984e+01 5.415809999999999791e-01 1.326478799999999936e+01 8.534048000000000300e+00 1.435498800000000053e+01 1.501178799999999924e+01 1.905257999999999896e+00 1.597518799999999928e+01 5.504368000000000372e+00 1.277318799999999932e+01 7.894768000000000008e+00 5.226408000000000165e+00 9.684938000000000713e+00 2.359188000000000063e+00 1.475308799999999998e+01 2.725477999999999845e+00 8.091110000000000246e-01 1.280628800000000034e+01 1.064678800000000081e+01 2.691467999999999972e+00 9.010688000000000031e+00 4.683408000000000015e+00 1.086688799999999944e+01 4.947347999999999857e+00 7.098398000000000430e+00 1.033738800000000069e+01 5.029207999999999679e+00 1.122958799999999968e+01 5.797907999999999618e+00 7.959818000000000282e+00 1.588878799999999991e+01 7.365058000000000327e+00 2.910908000000000051e+00 1.576068800000000003e+01 3.998078000000000021e+00 6.047538000000000302e+00 4.942987999999999715e+00 1.445558800000000055e+01 2.899398000000000142e+00 3.122977999999999810e+00 1.077978799999999993e+01 1.346338800000000013e+01 1.542578800000000072e+01 1.446278799999999976e+01 7.894517999999999702e+00 3.365628000000000064e+00 1.099048799999999915e+01 1.431928800000000024e+01 1.312338800000000028e+01 6.361127999999999894e+00 9.761229999999999629e-01 5.472357999999999834e+00 4.722149999999999959e-01 7.559427999999999592e+00 4.218227999999999867e+00 1.418647999999999909e+00 1.097248800000000024e+01 1.602708799999999911e+01 9.733117999999999270e+00 2.804787999999999837e+00 4.530067999999999984e+00 7.908527999999999558e+00 3.921450000000000213e-01 4.084868000000000166e+00 4.732537999999999911e+00 3.343798000000000048e+00 6.786488000000000298e+00 1.011985800000000069e+01 1.345038800000000023e+01 2.434658000000000211e+00 3.134647999999999879e+00 2.936940000000000106e-01 1.313058000000000058e+00 9.610137999999999181e+00 1.211268800000000034e+01 1.246738799999999969e+01 6.480317999999999579e+00 9.077567999999999415e+00 9.796447999999999823e+00 1.623868799999999979e+01 1.589698800000000034e+01 2.414578000000000113e+00 4.680818000000000367e+00 1.089908800000000078e+01 4.191457999999999906e+00 1.364668799999999926e+01 5.716397999999999868e+00 7.058927999999999869e+00 1.544408800000000070e+01 6.557450000000000223e-01 5.337579999999999547e-01 1.243858799999999931e+01 3.668597999999999804e+00 1.101718800000000087e+01 6.760717999999999783e+00 9.177327999999999264e+00 1.445478800000000064e+01 7.662008000000000152e+00 7.754839999999999511e-01 1.454928800000000066e+01 1.287338800000000028e+01 1.488958799999999982e+01 7.366367999999999583e+00 2.553097999999999868e+00 3.952307999999999932e+00 1.448258799999999979e+01 1.347868800000000000e+01 6.068027999999999977e+00 2.354967999999999950e+00 1.091578799999999916e+01 1.414928800000000031e+01 6.577618000000000187e+00 1.620378799999999941e+01 6.015837999999999575e+00 1.522438799999999937e+01 1.472088800000000042e+01 1.094748999999999972e+00 1.463938800000000029e+01 1.167678800000000017e+01 1.189528800000000075e+01 1.625798000000000076e+00 5.785567999999999600e+00 1.075968000000000035e+00 3.215018000000000153e+00 1.137138799999999961e+01 8.351388000000000034e+00 4.700117999999999796e+00 1.472938800000000015e+01 7.208867999999999832e+00 1.406738799999999934e+01 8.476528000000000063e+00 1.449567999999999968e+00 1.187238800000000083e+01 1.117578800000000072e+01 1.076518800000000020e+01 5.818407999999999802e+00 4.947458000000000133e+00 7.137967999999999869e+00 2.507397999999999794e+00 2.882098000000000049e+00 7.387007999999999797e+00 1.296448799999999935e+01 7.371237999999999957e+00 9.604288000000000380e+00 1.341337999999999919e+00 1.357518800000000070e+01 5.624907999999999575e+00 4.736477999999999966e+00 5.772377999999999787e+00 1.121728799999999993e+01 1.809088000000000029e+00 3.409607999999999972e+00 3.766487999999999836e+00 4.952677999999999692e+00 2.062127999999999961e+00 1.434158799999999978e+01 5.440348000000000184e+00 2.726208000000000187e+00 2.550937999999999928e+00 1.048788799999999988e+01 8.086627999999999261e+00 1.425788799999999945e+01 2.685897999999999897e+00 1.206198799999999949e+01 6.592217999999999911e+00 8.714608000000000132e+00 1.225988800000000012e+01 3.145798000000000094e+00 3.998158000000000101e+00 1.060118800000000050e+01 3.580209999999999781e-01 1.079148799999999930e+01 1.092678800000000017e+01 9.810659999999999936e-01 8.267198000000000491e+00 3.294538000000000189e+00 6.381548000000000442e+00 1.520008799999999916e+01 2.549767999999999812e+00 1.299188799999999944e+01 1.460468799999999945e+01 8.813898000000000010e+00 2.849619999999999931e-01 1.555630000000000068e-01 2.139978000000000158e+00 1.552648800000000051e+01 1.450098799999999954e+01 5.604550000000000365e-01 1.521548800000000057e+01 7.023077999999999932e+00 1.284877999999999965e+00 3.202907999999999866e+00 1.227888800000000025e+01 9.572468000000000643e+00 2.692638000000000087e+00 3.049959999999999893e-01 1.080118799999999979e+01 1.488868800000000014e+01 8.801068000000000779e+00 1.370048800000000000e+01 2.600487999999999911e+00 5.572957999999999856e+00 5.466217999999999577e+00 1.027284000000000086e+00 1.007549000000000028e+00 9.407857999999999166e+00 9.588938000000000628e+00 2.480377999999999972e+00 1.563188800000000001e+01 6.644128000000000256e+00 1.401008000000000031e+00 6.794888000000000261e+00 3.580907999999999980e+00 8.147057999999999467e+00 2.067838000000000065e+00 1.356978000000000018e+00 1.341238799999999998e+01 1.286578800000000022e+01 1.358598800000000040e+01 4.305669999999999775e-01 2.401308000000000220e+00 3.506547999999999998e+00 1.633227999999999902e+00 1.370648800000000023e+01 1.317398799999999959e+01 1.372358799999999945e+01 1.312668799999999969e+01 1.596768800000000077e+01 9.378778000000000503e+00 1.192308799999999991e+01 1.184798800000000085e+01 1.207978800000000064e+01 5.025147999999999726e+00 7.298257999999999690e+00 1.393508800000000036e+01 3.601509999999999989e-01 7.692758000000000429e+00 9.185107999999999606e+00 8.723677999999999599e+00 1.484548799999999957e+01 5.746048000000000044e+00 4.379798000000000080e+00 9.322777999999999565e+00 2.051527999999999796e+00 1.321668799999999955e+01 1.593618799999999958e+01 1.607918799999999848e+01 3.095298000000000105e+00 1.478778800000000082e+01 7.362578000000000067e+00 5.577047999999999561e+00 1.318708799999999925e+01 1.128648800000000030e+01 5.086077999999999655e+00 1.556488799999999983e+01 6.411018000000000328e+00 1.484248799999999946e+01 1.065318800000000010e+01 1.518858799999999931e+01