-7.780401010604863404e+04
-7.780996261494168721e+04
-7.780942848218901781e+04
-7.780643533041363116e+04
-7.781542893598569208e+04
-7.780609273910649063e+04
-7.779646570739704475e+04
-7.779393765772125334e+04
-7.779266609057347523e+04
-7.778637218911739183e+04
-7.780876186890147801e+04
-7.781233502095930453e+04
-7.780382094312641129e+04
-7.780594485039304709e+04
-7.780703782458700880e+04
-7.780349407814154983e+04
-7.780207294330801233e+04
-7.780217338762526924e+04
-7.780289145424134040e+04
-7.779748834329081001e+04
-7.779908625059333281e+04
-7.779850003347136953e+04
-7.780074244218094100e+04
-7.779607154386556067e+04
-7.779709924044368381e+04
-7.779132112840747868e+04
-7.781155368349084165e+04
-7.780089484267364605e+04
-7.780364996183926996e+04
-7.778800323031966400e+04
-7.780584754512457584e+04
-7.780739246883605665e+04
-7.780911389775651332e+04
-7.779840425054746447e+04
-7.780438130468716554e+04
-7.779625182667786430e+04
-7.779032506204760284e+04
-7.780514804346555320e+04
-7.780860919413005468e+04
-7.780449614581211063e+04
-7.779722802408636198e+04
-7.780408760483782680e+04
-7.781335794696674566e+04
-7.780696405423110991e+04
-7.780071091409947257e+04
-7.780996228415748919e+04
-7.781248704554149299e+04
-7.780117511939640099e+04
-7.780638383006457298e+04
-7.780069545280517195e+04
-7.780187897457431245e+04
-7.780600469885513303e+04
-7.780615272025443846e+04
-7.781109767102373007e+04
-7.780924243634405138e+04
-7.780527948729481432e+04
-7.780991782778380730e+04
-7.780441803036330384e+04
-7.781145762264746008e+04
-7.780540373973648821e+04
-7.780256042808535858e+04
-7.779412740774819395e+04
-7.779872482586459955e+04
-7.779045623009852716e+04
-7.780524730621455819e+04
-7.780773620197866694e+04
-7.780624903860194900e+04
-7.779825128017448878e+04
-7.779022078181231336e+04
-7.780414025349753501e+04
-7.780823580933893390e+04
-7.779902472356450744e+04
-7.781422981633430754e+04
-7.780083942010016472e+04
-7.779389229085233819e+04
-7.780456912978760374e+04
-7.780545076392189367e+04
-7.779898177941827453e+04
-7.780989898077618273e+04
-7.781283892800341710e+04
-7.780654608437899151e+04
-7.779778936317449552e+04
-7.781219578690243361e+04
-7.782020016674448561e+04
-7.781087927761267929e+04
-7.781323809444572544e+04
-7.780617862782775774e+04
-7.780153163772175321e+04
-7.780945656793305534e+04
-7.779022714238087065e+04
-7.781742952934520144e+04
-7.780580741614518047e+04
-7.781561338894609071e+04
-7.781563803097065829e+04
-7.781243282814761915e+04
-7.779889836084863055e+04
-7.780459176173372543e+04
-7.779856495208849083e+04
-7.778961864487497951e+04
-7.780500152344914386e+04
-7.781391002609962015e+04
-7.781078370468737558e+04
-7.779642267823666043e+04
-7.781236009293219831e+04
-7.781337595846167824e+04
-7.781134177302251919e+04
-7.779013607063055679e+04
-7.781046159190780600e+04
-7.779638352202117676e+04
-7.780458896069330513e+04
-7.779657735340314684e+04
-7.780699838033884589e+04
-7.780627258761429403e+04
-7.781888634765619645e+04
-7.779155939740865142e+04
-7.780191452946400386e+04
-7.780498472083131492e+04
-7.779969825537796714e+04
-7.781159834354446502e+04
-7.779730753645063669e+04
-7.780425200512551237e+04
-7.778746040536297369e+04
-7.780232133118071943e+04
-7.780161032219803019e+04
-7.780891251368423400e+04
-7.781327369230646582e+04
-7.779754313311184524e+04
-7.780288506256835535e+04
-7.780962694634850777e+04
-7.781453332719560422e+04
-7.779435318824005662e+04
-7.781093920008509303e+04
-7.779011941868912254e+04
-7.780848636516970873e+04
-7.779900661118316930e+04
-7.780614677191886585e+04
-7.780827117101867043e+04
-7.780173521259211702e+04
-7.781437367224183981e+04
-7.780124681781005347e+04
-7.779496617360280652e+04
-7.780290133951684402e+04
-7.780124666404179879e+04
-7.781023621239655768e+04
-7.780317218638428312e+04
-7.780632287040453230e+04
-7.781585705988874543e+04
-7.780602391469514987e+04
-7.780675116526668717e+04
-7.780344011431399849e+04
-7.780788892699925054e+04
-7.780126195368090703e+04
-7.780819647503517626e+04
-7.781625732960204186e+04
-7.778709934819123009e+04
-7.780040630566465552e+04
-7.779993627641951025e+04
-7.780394976158467762e+04
-7.780363817046162148e+04
-7.780507082586483739e+04
-7.780336509092070628e+04
-7.780265772207370901e+04
-7.779552295844932087e+04
-7.779622536118261633e+04
-7.780462721778238483e+04
-7.780218952316639479e+04
-7.779313485826566466e+04
-7.780699726902399561e+04
-7.780711858939460944e+04
-7.781344109310091881e+04
-7.780972525006547221e+04
-7.778817440726317000e+04
-7.779719132174311380e+04
-7.779266019894693454e+04
-7.780666476514513488e+04
-7.779818696959344379e+04
-7.779986314143959316e+04
