-9.788252250599617232e-01 -3.308770415267135334e+00 -3.791480675522252319e+00 3.005649154569713488e+00 -1.647676170489931202e-01 2.017138583100586136e+00 2.187782714020773511e+00 8.662319803344732394e-01 -1.865013595561322290e+00 -2.232303425821101861e+00 -1.108531219620896846e-01 -9.084433270844396446e-01 2.312700285658312982e+00 -1.456547030549199873e+00 -8.666325582401138705e-01 -3.510753725210770337e+00 -3.399311306355401463e+00 2.828761870437225046e+00 -1.829777138043844620e-01 2.697944130777452099e+00 -1.672133020002346981e+00 8.329660164426883062e-01 -4.193618726690063192e-01 1.834225146880546706e-02 -4.476819078447155320e+00 -2.380939426082097077e-01 -4.477896884981459991e+00 1.467513814879875811e-01 1.328910259983512088e+00 8.683690814587893270e-01 9.060249472510280011e-01 -1.092651570963532492e+00 -3.356955977816502013e-01 -3.518674780484822850e+00 -5.831867175328884656e+00 1.333180348466746379e+00 5.950447491370641551e+00 4.127989256190702783e+00 -4.366727517304391348e+00 1.535358033825441337e+00 -8.504032395239105036e-01 -1.228209396803273457e+00 4.523121050664864917e+00 -2.819199422769327334e-01 4.921978373927685446e+00 -1.122719596478964466e+00 -3.209829215235937117e+00 9.845449016253533525e-01 2.057991873048502729e+00 3.138354084105868136e+00 -1.370427408822548099e+00 -3.634495788385800896e+00 -2.030967005486319366e+00 1.582315637403472586e+00 2.000167758171373933e+00 1.122566358717885127e+00 -1.073975076056130851e+00 4.616909245314260168e+00 4.105589289377340606e-02 1.774781751098588822e+00 -7.135588335559118756e-01 1.377657351509719685e+00 -1.008581632846487164e+00 -4.970158794270304048e-01 5.771510009407872233e-02 3.309102601823032397e-01 -2.019244316763741498e+00 -1.734411828584949467e+00 2.501369908111652052e+00 -3.400597372262984752e+00 3.807932651790627565e-01 1.644855155868180319e+00 1.051961288969515795e+00 -7.709049803158480429e+00 -2.563716079602648801e+00 -2.192909494148163052e-01 8.299670814674691144e-01 -1.306040809694090976e+00 2.333751451641771002e+00 2.974519263360895227e+00 1.740410726976737710e-01 3.141925860912773594e+00 7.435748713611253002e+00 -1.820850267129954458e+00 -2.622864826937967853e-01 -8.162236597592738008e+00 3.304717327908651026e+00 5.248186086039278386e+00 -8.456168734832139933e+00 1.164399753271900595e+00 -3.350358012338613634e+00 2.447743890823290691e+00 2.787988798914571742e+00 -1.404776321455384336e+00 -3.695717359261090351e+00 -7.453438419043785235e-01 -1.143119244867497830e+00 5.770514478181530293e+00 5.789046991299999334e+00 4.438517865708089261e+00 3.561683683501347453e+00 1.149616423093131834e+00 2.466832790711853018e+00 6.127222161175357451e-01 4.960347463795821144e-01 2.545664362815084569e+00 -3.592761638422014236e+00 7.177945206760043995e+00 -1.085514702218493222e+00 4.314872990240588457e+00 2.668797074490520949e+00 2.835778925765044534e+00 3.709762782771573453e-01 -6.850447829196143479e-02 2.764030229236001723e+00 6.443426738500780404e-01 3.500196774757879936e+00 -4.270770339848843022e+00 1.232072736732769735e+00 9.026602985319168937e+00 2.096695206355233765e+00 -4.256728001662407834e+00 3.426845766606275046e+00 -3.312603930397495233e+00 -1.610617829121767652e+00 -2.092227657132890606e+00 1.514897193176611090e+00 -9.800588404587188274e-01 -3.517476646312625022e+00 3.485755401327828906e+00 -2.478885094886953855e+00 -3.607042575001540019e+00 -1.036295556112853067e+00 -1.139461593207906701e-02 -5.679241336852401290e+00 -7.598675934865267934e+00 4.582762421406606279e+00 4.578348351134438055e+00 1.137396482978057621e+00 3.941782750769479815e+00 5.002143320240578506e-01 2.228299189426720339e+00 -9.876837046241084828e-01 2.242997158973478733e+00 -3.542423033907414975e+00 -1.246218947495506990e+00 2.379813282804365215e+00 1.684126188799850654e+00 1.147789911256372530e+00 -9.068384443585034704e-01 9.489119799676333511e-02 8.777464096837720442e-01 -2.946313230908780945e+00 1.238546775028039226e+00 1.144555463212111546e+00 -6.740070361358210249e-01 5.223291634732639466e+00 -3.271642139887203982e+00 4.390097304310356940e-01 1.461112281699747939e+00 -8.572058648303538045e-04 -2.429497798620665616e+00 1.068103704391684117e+00 -1.574691801679432679e+00 -1.754577506566465495e+00 1.877047387792132094e+00 6.475733166613458103e+00 -2.307124076661180023e+00 -1.204700770215121564e+00 2.844154037894913944e+00 2.998477833039465246e+00 3.843757891980709385e+00 -4.502726544483078186e+00 2.390215967054825641e-01 1.677588901361585005e+00 1.951230404995504486e+00 3.113554249403385210e+00 6.799617115495795172e-01 3.653136802066643263e-01 7.785707250248812272e-01 1.780516854284223571e+00 -6.400603983368520211e+00 7.986273882233475341e+00 -1.438822872331459779e+00 4.440154115895186493e+00 3.192893871533283856e-01 -3.255875619778287877e+00 -2.378562183902666050e+00 3.088831033581442842e-01 -7.498103626853721559e-01 -2.459973086910510531e+00 -1.763665328551556666e+00 -1.919895853958130338e+00 1.297226553107973857e+00 -4.373025177908216321e+00 1.415641290092457316e+00 9.564658816799055663e-02 -3.865139701858040233e-01 -5.036711805101539596e+00 -3.539480663206419297e+00 -3.643653030161984940e+00 2.090047361471894405e+00 -2.106467456058434884e+00 -2.307259316698643481e+00 -7.159751565066244106e-02 -1.317536212878423763e-01 1.117952256603234495e+00 2.978120864966937287e+00 -2.805799860426346548e+00 -1.921250825436131349e+00 -3.809434176160936270e-01 -1.208720947450420802e+00 8.236884470286096604e-01 1.937706915469905034e-01 6.197048186601461506e-01 5.301463975930825967e+00 -3.996841901078406201e-01 -3.903778243359751765e-01 -3.473328230280825490e+00 -2.592542262188527236e+00 -2.956484515855598350e+00 -5.508594120608164557e-01 3.692318874821579833e+00 1.690997205456037378e+00 -1.056300283023168252e+00 -3.406501139829941405e+00 -1.315307066253324830e+00 4.241556434874192760e+00 3.053255704639295853e+00 -1.554765236311681509e+00 -5.506511526875373930e-01 4.439234689328710459e+00 -1.806511737834855635e+00 -1.964330690905773169e+00 6.299336963225368180e-01 -1.248056772187110974e+00 2.297635162549774179e+00 5.901211890203409416e-01 -3.126579973315813388e-01 -8.068701399515324724e+00 2.246419297564028195e-01 3.175837171751386134e-01 -9.486127035349213310e-01 1.063074626192499483e+00 1.861270069049045794e+00 1.437574858753809304e+00 2.101934086589722028e+00 1.830509388284707661e+00 -3.271448278692818068e+00 -4.958231445719169628e+00 3.728079323206641149e-01 7.542248957561471734e+00 1.631543011039908952e+00 2.024771674796771670e+00 -3.137729305986030504e+00 -3.118471741716146273e+00 -1.505598540714867317e+00 -2.235457655440099778e+00 2.088116462838158494e-01 9.309682495217694864e-01 -1.185981594991714738e+00 3.207461743249326314e-01 -2.537800386035929723e+00 2.607392441055015553e+00 -1.138305110910364348e+00 7.828444130528386946e-01 -1.365542312412297177e+00 6.763750223431058695e-01 1.607562329872324502e+00 -8.514851598236123920e-01 -5.837793054384856628e-01 -6.424176887541017678e+00 6.280182243090436378e-01 -1.905535213174016418e+00 5.449095188993333672e+00 -2.161148654171410222e+00 4.040880273885806950e+00 4.180927760436905505e-01 -3.104255082720966730e+00 -3.776367215670284772e+00 5.333555974022125667e+00 4.126567950245656924e+00 -2.798768921140308397e+00 -9.071645631104383156e+00 5.480709990298453071e+00 4.619059201955446059e-01 -5.471822200155845341e-03 -4.290136918901777285e+00 2.962861366443337641e+00 -6.910632216970434838e-01 1.789927606853065845e+00 7.935072929647296602e-01 -5.809999426913903253e-01 -3.652170067198088788e+00 -9.383997667134480469e-01 -2.578503009326141182e+00 8.355139798861404010e-01 -2.085406005661481377e+00 2.443581788681757072e-01 -1.409675301823853921e+00 1.683868564241794097e+00 -1.016438410536194992e+00 9.494513974554599223e-01 1.301727526674176794e+00 7.947954157550115584e-01 -2.783399379392309525e-01 -2.055842430627992101e+00 -2.159793168472734504e+00 2.699498619877261252e+00 -1.987730302710874808e+00 2.714972548422237342e+00 1.780133759881524558e+00 5.445843257446130181e+00 5.088019715588067093e+00 3.212585952273342649e+00 2.301223394418272061e+00 5.567583459534307444e+00 -1.075369128305414312e+00 -1.086083944505455978e+00 4.416955050153241191e-01 -3.886690690337368803e+00 4.758932881918474855e+00 5.334553047910492118e+00 -2.874911633335203387e+00 1.447912236978575073e+00 -9.049527971441466700e-01 -1.085679767055092171e+00 -2.429609898727764339e+00 -2.522684355080589302e+00 1.847921928773541111e+00 -2.132249966470390223e+00 2.207937593368119344e+00 -2.040358731890195454e+00 4.355978762539813864e-01 2.606605169201952954e+00 -5.950664492495392338e-02 8.234516484078811871e+00 4.365988067974081233e+00 2.123007364062194924e+00 -3.292901565243941064e+00 4.021222645930956574e+00 -2.998267002562811978e+00 -9.412295230866703569e-03 1.095283866597645650e+00 -1.467154374628216296e+00 1.318148135481392036e-01 -8.456862932743069994e-01 3.426154654019393231e-01 -3.163794123548430842e-02 3.460792044450771598e+00 1.209606435452363071e-01 -5.326395451126046954e-01 8.555948114563204365e-01 1.050037589425226514e+00 -1.517402476304057668e+00 6.177082540462426330e+00 -6.774117426454960622e+00 -1.424585130288614554e+00 -6.912910214559637723e-01 -1.202050991078066566e+00 7.641026121197421750e-01 -1.487229549770973991e+00 -2.901011417903487377e+00 -3.863494195698797262e-01 -1.241322024009736680e+00 -1.352755186892959371e-01 -5.937865539900534229e-01 -1.881357071267322878e+00 -7.646019203949372400e-01 -1.340381494796130779e+00 -4.580112128048876435e-02 7.652102434531822261e-01 2.074418652503814631e+00 -1.045806067492599523e+00 -6.303682127927118239e-01 -1.710700599050940740e+00 -1.480394014341346098e+00 -5.796105184281798994e-01 -5.247616843752316296e-01 -1.859529946285646940e+00 -3.598068910006246290e-01 2.697706046605036434e+00 -1.837187572187857887e+00 1.414899783879448592e+00 -1.598958903762860206e+00 5.030122067154447763e-01 -4.192502867825826485e+00 -7.253416860974372105e-01 1.398951229651666184e+00 8.795693219758078663e-02 9.917604461336315680e-01 -3.628514373496954715e+00 2.276516633657921507e-01 -2.425013280116055658e-01 1.463556372566897856e+00 1.278589138971854444e+00 -5.617778596480649256e-01 -6.894213150825244663e-01 -6.106987577623422814e-01 2.989882120240122454e+00 -1.618518829789505009e+00 2.278533407144343492e+00 -2.141292022815427243e-01 1.087603980820056382e+00 2.161025241209467485e+00 -1.274970053862870323e+00 -5.248609289654608823e-01 8.950401651967351269e-01 -2.700842278500417581e+00 4.305862815577387037e-01 1.729153922185495240e+00 -1.607748991977263398e+00 -2.090603234021313650e+00 -3.277087222612271589e+00 2.745273001682662084e+00 -8.731312791277719143e-02 3.278889051856642478e+00 -5.834687161509286568e-01 1.727193712973297490e+00 -1.857457636966350911e+00 4.074103557461585812e-01 6.245333507961731145e-01 -3.013365550015211003e+00 -3.637082832600534339e-03 -1.559951151816668879e+00 1.744077634608474536e+00 -1.255542796770314551e+00 2.762198060971820524e-01 6.272798034200836037e-01 -3.037678417738692627e+00 3.759225669477052056e-01 -8.178062767299926206e-01 9.545786918035243929e-01 6.099642449505104480e+00 -9.844421089124683277e+00 6.852026486667667227e-01 3.600162816593881931e+00 6.868310312775394166e+00 -9.091575796016857502e-01 -9.743689886924632448e-01 1.048270727186739970e+00 -1.398940945238171141e+00 2.847968526860307659e+00 -2.233392545210250102e+00 5.047317606518531008e-01 3.154013132093758554e+00 -4.861653089688508511e-01 1.465139143803819266e+00 -1.478547962118945902e+00 1.602584159519941376e-01 3.036776988895832918e+00 -2.020077354256857749e+00 -3.171901326706748403e+00 -1.729989016561310766e+00 -2.276085716732470399e+00 -9.530098045248216465e-01 1.204811841880870427e+00 -3.073126734174172481e-01 1.412982769203931399e+00 -1.617162829870154361e+00 4.095736821248876502e-01 -1.375316104777522419e+00 -3.185329171186841002e+00 -1.784322601498146588e+00 -4.955863459511885005e-01 1.156209760584945984e-01 7.407415668652472807e-01 2.197971996691207242e+00 1.099864030147762239e+00 2.598025911464203030e+00 5.017199701597647304e-02 -4.072432340268605788e-01 -2.806500743206048920e+00 -1.333323816035005160e+00 8.224147224172210224e-01 -2.286438521577478511e+00 2.128458617435360800e+00 4.610512854340880207e-01 1.486117290451461015e+00 -9.468777229782698868e-01 3.050974621726045832e+00 -4.329189922267347335e+00 2.642593931566609822e+00 1.540580973219011884e+00 1.128777116027675831e+00 2.629100781060821568e+00 5.260064583626310686e+00 2.385779785293643318e+00 1.220878152643173786e+00 -2.730989493999763429e+00 -2.584334785998631201e+00 -3.165092530752207978e+00 1.281231204798788159e+00 -2.411589035180686125e+00 -4.274869707068056357e+00 -6.002558100330475988e+00 2.212904450865657680e+00 -6.955965911657564782e-02 1.724783560670682392e-01 3.931263338425848297e-01 -1.355242472296789291e+00 3.010299252131597991e-01 1.380618748375681104e+00 4.879817420803846062e+00 4.445915958555908820e-01 -1.542041359935339306e+00 4.991406392551521520e+00 -3.212243995524625140e-01 -9.104698707636815769e-01 2.323351852715359322e-02 -6.209469701221041582e+00 5.443920586343190537e-01 -3.889038107717662562e+00 -3.632407538225587373e+00 -4.105475132387542914e+00 -2.228326957343157222e+00 3.214308077313124290e+00 1.608001988549246697e+00 9.650795922028649887e-01 -3.144532959733823407e+00 7.785429571084440781e+00 1.196237212129193095e+00 2.040428665901963257e+00 -4.188245120638787178e-01 -1.065066202865857514e+00 -3.264344834291638686e-01 -1.285425188622157044e+00 1.272894144998851340e+00 -1.031135351641603748e+00 -8.184521378974953798e-01 -2.287830516944062698e+00 -1.406913422579700423e+00 -1.652469735620074376e+00 3.843025127519172024e+00 2.760814807356707368e-01 -1.406243393040484069e+00 3.488268397765396767e+00 7.656992673148820261e-01 -3.065433992879714742e-01 -1.741064815675036348e+00 -3.936077472382981668e+00 1.560306992523605274e+00 -4.406821817536357599e+00 2.533330265710212803e+00 -1.005288049424628571e+00 1.620450242643915795e+00 -2.344024552282191642e+00 2.228538302040484975e+00 5.752211307484006442e-01 2.658006667851288765e-02 -7.409688524034926393e-01 -9.328734371217672905e-02 1.927290861481900652e+00 -2.058458271200512613e+00 8.193695075812729156e-01 -1.161523202817274836e+00 -1.265765503784608281e+00 -2.170397941448377388e+00 2.999269218657925951e+00 2.449759635868362651e+00 -2.004191534951396569e+00 -4.803676251270975861e+00 3.200413834681021363e+00 3.796126145098063231e-01 6.878549989071955917e-01 1.000340732312731129e+00 6.993794041375849702e+00 4.449520645485998682e-01 4.686350119454965601e-01 -3.286142648694853063e-01 1.082486970885487176e+00 1.967917894332921414e+00 3.180455901852109690e+00 -2.423583232419538991e+00 2.746864000450379914e-02 -1.207665252405131673e+00 1.662639992125542199e-01 1.871255720332273276e+00 -1.771205346305610329e+00 7.931175136932591130e-01 -9.532237203255234936e-01 -5.154625176928128161e-01 9.139861117377127142e-01 -3.958274836250487372e+00 -3.018251160646136633e+00 -4.024691578602910269e+00 1.436249712074944451e+00 8.103089392919443412e+00 -2.474509591165392930e+00 1.846797842378508525e+00 1.736437343822841983e+00 9.651083885606517310e-01 6.840374246177531870e-01 4.616474214623410788e+00 7.281267052719549993e-01 3.957452597391540872e-01 -1.555932003022719279e+00 4.674860372698055322e+00 -2.422201007245775362e+00 2.333824470977587939e+00 8.130008845243300586e-01 -1.196297375948140340e+00 3.040331282199796537e+00 4.965785861652117994e+00 -2.449554461819132278e+00 2.672156478158749238e+00 -1.667118854202730427e+00 -1.559594282668383292e+00 6.858366827587497605e-02 7.018834531354120054e-01 1.337472548438995101e+00 9.520158159605044412e-01 1.001284327250921979e+00 -4.509170243758536811e-01 -4.513748864646628611e+00 3.388309040798166638e+00 2.338276079359013604e+00 4.788394641258360451e+00 -4.223330911498558216e+00 -3.777925818535492475e+00 -2.507952446969296645e+00 2.655913789705001693e-01 1.970474599527844317e+00 8.425839999434604488e-01 -2.467169605253822340e+00 4.652917548064557707e+00 -7.751626760808202121e+00 -8.601585199448442687e-01 -8.625748428955568592e-01 -1.488983556492591287e+00 1.698544422299537393e+00 2.770641564451433059e+00 -6.063006797531595993e+00 -2.774082214986273609e+00 -5.852042109282546978e-01 -2.724361189502064740e+00 2.968602126056394841e+00 5.528206497143636211e-01 1.414235924988329396e+00 -5.290034907213537752e-01 -1.210519691370742557e+00 -5.387999087962686007e-01 -1.284521702896598061e+00 -1.900634690143522931e+00 4.447936845807728412e-01 -7.056609182122229873e-01 -1.631617058817074750e-01 -3.136766684882874023e-01 2.435580000761766062e+00 -1.279487996711340614e+00 6.419909884381833187e+00 -1.797967447102989169e+00 1.520465174642947614e+00 2.701274223867219160e+00 -2.536344627305675115e+00 -9.302961630998538567e-01 3.032020961874947407e+00 1.490077303867812786e+00 2.956394527237514502e+00 6.114269456598746544e+00 -1.131388328614123667e-01 6.078698241421996329e+00 -3.767180663315639610e-01 -1.383386798267931983e+00 -2.306118775242017804e+00 -1.870405713556889948e-01 7.869509793614980486e-01 -1.263353294599293575e+00 -1.426792165424698666e+00 2.962746181012190227e+00 -6.087430736920826924e+00 1.592899841552124940e+00 -2.134340273513302577e+00 -3.496705730596912254e+00 9.355561263820071360e-01 9.626689256795749605e-01 -5.276876000146345502e-01 1.427338782001971840e+00 -1.773780563444824487e+00 -8.321509766731886026e-01 -2.511996792576309812e+00 1.105163074201197526e+00 -1.991276368484042436e+00 -1.115056679983642329e+00 -2.458740499953103065e+00 2.154446301896546068e+00 3.031486172373193622e+00 -1.438658321715535537e+00 -3.110019496485062707e+00 1.608650935040798036e+00 7.075131410827202316e-01 -8.792196519169688251e-01 -7.574504477827346705e+00 1.277131837579575269e+00 1.548759653051121399e+00 4.093834204752252459e-01 2.853595643704241458e-01 -1.214741957331223698e+00 -2.389745455137417540e+00 -3.956685380144794095e+00 -2.528369578860771405e+00 -2.390453537006566709e+00 -2.473798423972195959e+00 -1.071375176324528056e+00 8.810996427039032852e-01 -2.156069182346099122e+00 -6.702815073471612983e-02 -1.692988267908720479e+00 -2.371226825977168051e+00 -3.378111016376261766e-01 -3.189137489504137779e+00 -1.003133979018045352e+00 1.656639036851055014e-01 2.003460313151882999e-01 7.827539102140803617e-01 9.315287500572613233e-01 -3.679954952917572353e+00 1.990734894113516784e+00 1.936292808614305860e+00 1.727830832389329219e+00 2.368569847750666479e+00 -2.193032392889431748e+00 2.487275119416391123e-01 1.886340383826453415e+00 -1.213123704867743902e+00 6.783542577202694712e-01 -1.024027793475025927e+00 3.685827353023368502e+00 4.957223058975959162e+00 1.038794154371527778e+00 6.314499788262112112e+00 -2.743393010895728068e+00 -1.419722145367378618e-01 -4.830296941382794529e+00 -6.266797078926349407e-01 2.689821500998891834e-01 -6.111430444253378447e-01 -2.294390430092017930e+00 -1.567883005724892254e+00 -4.311200426181429624e-01 -2.142908732616882528e+00 6.647428364592860017e-01 -2.170281213355206074e+00 -8.868450303030331883e-01 -3.402458336884952583e+00 1.812609366596198424e+00 2.168496353393102538e+00 -1.857824276307456834e+00 2.750117474659606653e+00 -1.386812022182529747e+00 -3.124937038259944622e+00 5.878480765275498676e+00 6.942483045565271960e-01 -1.190857949650494518e+00 -4.858953431146001423e-01 -1.910700045631338606e-01 -2.621229605192220369e+00 -1.309203781064559813e+00 7.441806747380639298e-01 -2.449172395857783346e+00 3.375651498888868840e+00 -2.471353304663696626e+00 1.199310709102253014e+00 1.146933733832891766e+00 1.013474956787534298e+00 5.630495273767543996e-01 4.485820511358888041e+00 3.565169585455567614e+00 3.497020947870542518e+00 2.465296299335659747e+00 -1.633739761762497800e+00 -2.787039033328283733e+00 -1.212818772007609125e+00 -1.445526767268348500e+00 2.828203426784431929e-01 -4.098383515061882143e+00 7.002744566440778362e-01 -2.507571923669971614e+00 -5.240284056930192058e+00 1.163196991113629508e+00 -4.497795682432774167e-01 -7.979033655132806713e-01 -1.462371608132243539e-01 -9.233094467918454562e-01 1.550976972600700554e-01 7.317190509058512093e-01 5.191931886882201752e-01 1.607873433380556216e+00 -5.390626755610726795e-01 1.305689596973227617e+00 2.030900671019274739e+00 -2.710736398503537536e+00 -1.271574140526734009e+00 -4.437261624599642823e-02 -2.963784906775212225e+00