-1.069216569946185444e+02 -3.339816010583912753e+00 -2.826508713153711483e+01 -3.339816010583912753e+00 -7.098412705217678820e+01 -3.083277025867523236e+01 -2.826508713153711483e+01 -3.083277025867523236e+01 -5.580341184521427067e+01
-8.643428432347171508e+01 -1.153055340120923411e+01 1.538026246416341891e+01 -1.153055340120923411e+01 -3.082099824784649833e+00 2.855290153499111749e+00 1.538026246416341891e+01 2.855290153499111749e+00 -7.841405602388735474e+01
-4.558076813441680031e+01 5.582470300448754585e+00 -2.406635705758030142e+01 5.582470300448754585e+00 -9.287595128414942280e+01 2.421201443141571374e+01 -2.406635705758030142e+01 2.421201443141571374e+01 -8.108200762794608352e+01
-2.342281359837683041e+01 -8.876768814198610968e+00 3.714785617908056281e+01 -8.876768814198610968e+00 -6.784120322981158324e+01 5.773872707546851224e+00 3.714785617908056281e+01 5.773872707546851224e+00 5.178266716421777716e+00
-2.663121375839682869e+01 4.984736741484567801e+00 -1.283536912179162570e+01 4.984736741484567801e+00 2.075502977909248514e+01 -4.659040702159511227e+01 -1.283536912179162570e+01 -4.659040702159511227e+01 3.351748558351186347e+00
-4.124259949729069064e+01 -1.740468194311703343e+01 1.545440951009608455e+01 -1.740468194311703343e+01 -6.893507505703560412e+01 4.695918404902737819e+01 1.545440951009608455e+01 4.695918404902737819e+01 -1.180106633800457701e+02
-6.862716982962564316e+01 2.772399941499682896e+01 -2.356616369476790140e+01 2.772399941499682896e+01 -7.719001354934141546e+01 9.043155687502807183e+00 -2.356616369476790140e+01 9.043155687502807183e+00 -6.235135550339499133e+01
-1.249905346687125416e+02 -4.274217368981862109e+00 3.709496581171022545e+00 -4.274217368981862109e+00 -8.296216100024868467e+01 2.258013698370411881e-01 3.709496581171022545e+00 2.258013698370411881e-01 -8.642836412124688650e+01
-4.384984212343370302e+01 1.508353246571223316e+01 -1.237882107116112351e+01 1.508353246571223316e+01 -1.056888404653905553e+02 1.709653716145151847e+01 -1.237882107116112351e+01 1.709653716145151847e+01 -1.022528178864314867e+02
-1.550458236986548677e+01 2.687875221340781096e+01 1.220373636546901963e+01 2.687875221340781096e+01 -8.466251589378411779e+01 -8.779183506350305422e+00 1.220373636546901963e+01 -8.779183506350305422e+00 -4.348997924822504046e+01
-3.184992189029478382e+01 -2.507961990190391433e+01 -3.701388160254310833e+00 -2.507961990190391433e+01 -6.651358009342793309e+01 2.022264215725698122e+01 -3.701388160254310833e+00 2.022264215725698122e+01 -2.050476774562597981e+01
-7.037109061603575810e+01 1.871525033382082626e+01 -1.907551314344129834e+00 1.871525033382082626e+01 -2.118342460628143087e+01 5.601990123369995800e+00 -1.907551314344129834e+00 5.601990123369995800e+00 -3.979356781153854428e+01
-7.214591164543459456e+01 -1.102437907777354198e+01 -5.232027886533423988e+00 -1.102437907777354198e+01 -1.032019476772486826e+02 1.265273694703836682e+01 -5.232027886533423988e+00 1.265273694703836682e+01 -1.858862511838236031e+01
-9.211197077725857696e+01 -6.909384778044088904e+00 -4.477654298399932742e+01 -6.909384778044088904e+00 -1.220031737300151491e+02 2.128831195755523709e+01 -4.477654298399932742e+01 2.128831195755523709e+01 -4.924437099540163132e+01
-7.307824050870326005e+01 -3.082537281083918401e+01 1.800476961032883594e+01 -3.082537281083918401e+01 -7.758851186211050788e+01 -4.148216704534630850e+01 1.800476961032883594e+01 -4.148216704534630850e+01 -7.893297346903536038e+01
-8.594543982020041994e+01 1.788677507412660717e+01 -1.529290356411308238e+01 1.788677507412660717e+01 -5.380695436741435600e+01 -2.146465273007678931e+01 -1.529290356411308238e+01 -2.146465273007678931e+01 -8.833948906071036333e+01
-1.306104929959286949e+02 -2.704243829844158853e+01 -4.068655494407705930e+01 -2.704243829844158853e+01 -8.581229033406074791e+01 8.664205219227111954e+00 -4.068655494407705930e+01 8.664205219227111954e+00 -7.620895703046399206e+01
-1.095699624340734744e+02 -3.001936846103733902e+00 9.076757969137492665e+00 -3.001936846103733902e+00 -1.265571701797970263e+02 -2.028107768412513323e+01 9.076757969137492665e+00 -2.028107768412513323e+01 -1.435119174168907250e+02
-4.859610793958656672e+01 7.031110616405791269e+00 3.086577682945779344e+01 7.031110616405791269e+00 -3.016375318361993862e+01 -3.057171986038432010e+01 3.086577682945779344e+01 -3.057171986038432010e+01 -4.265328189760688105e+01
-1.958893768065652807e+01 1.477194925450309348e+01 -4.110539693592813393e+01 1.477194925450309348e+01 -7.614392602218875084e+01 1.247562530645433476e+01 -4.110539693592813393e+01 1.247562530645433476e+01 -8.302162053066537339e+01
-2.855863774279389844e+01 -9.689825521607682290e-01 2.217272011347265703e+01 -9.689825521607682290e-01 3.589751104259831749e+01 7.193488304723818505e-01 2.217272011347265703e+01 7.193488304723818505e-01 -3.197424041308956433e+01
-1.022672225648502575e+02 7.081969435519648748e+00 3.695842733959586468e+01 7.081969435519648748e+00 -6.485226737827311183e+01 -1.201970139208617461e+01 3.695842733959586468e+01 -1.201970139208617461e+01 -4.682874314857225784e+01
-3.782790124004299059e+01 1.235953476511301119e+01 -1.737417795123860031e+01 1.235953476511301119e+01 -1.030635098480038181e+02 5.500829490336354866e+01 -1.737417795123860031e+01 5.500829490336354866e+01 -5.760700941576183709e+01
-1.556742654232868084e+01 -1.018468780111658845e+01 3.777894511773038033e+01 -1.018468780111658845e+01 -7.524093817929190209e+01 -2.733919831770237963e+01 3.777894511773038033e+01 -2.733919831770237963e+01 -7.723926415842025506e+01
-6.280591794324122645e+01 -2.736206118789939623e+01 1.317702466695218710e+01 -2.736206118789939623e+01 -6.917948457149371677e+01 1.639969077153660137e+01 1.317702466695218710e+01 1.639969077153660137e+01 -4.206468239461050018e+01
-4.689868268976727705e+01 -2.777694231465373775e+01 1.943546106993243594e-01 -2.777694231465373775e+01 -7.596626297030509534e+01 -5.697708703528479468e+00 1.943546106993243594e-01 -5.697708703528479468e+00 -1.053815866094647049e+02
-1.016179238131896234e+01 9.422094272658353420e-01 1.701977875859941847e+01 9.422094272658353420e-01 1.559898539658754801e+00 -1.027819420075354806e+01 1.701977875859941847e+01 -1.027819420075354806e+01 -2.423873568257073075e+01
-5.288158017186152904e+01 -3.826019472279533762e+00 2.805911634846496305e+00 -3.826019472279533762e+00 -2.858072817762789342e+01 2.876871217155795790e+01 2.805911634846496305e+00 2.876871217155795790e+01 1.981141661771345142e+01
-7.587600610271043422e+01 4.770936425755840204e+00 -1.934904841863468050e+01 4.770936425755840204e+00 -3.819089529530569394e+01 -4.148098881249430825e+00 -1.934904841863468050e+01 -4.148098881249430825e+00 -8.458349892799894576e+01
7.410138712867247790e+00 -3.925528644499109276e+01 -2.693531070787140891e+01 -3.925528644499109276e+01 -6.681224305824621013e+01 -1.051045825443912207e+01 -2.693531070787140891e+01 -1.051045825443912207e+01 -3.811760488718247331e+01
-8.499698709048431056e+01 2.065840560928944925e+01 -9.987011863155233371e+00 2.065840560928944925e+01 -5.028776921148236312e+01 -1.898590971411662309e+01 -9.987011863155233371e+00 -1.898590971411662309e+01 -5.697682587745138250e+01
-1.473519963572628910e+02 -3.130137017450599046e+01 -7.040943114956985660e+00 -3.130137017450599046e+01 -8.949333937875617551e+01 1.656151809968339705e+01 -7.040943114956985660e+00 1.656151809968339705e+01 -7.168834931331474536e+01
-1.201235898957171884e+02 -1.398150893118838312e+01 1.119973814101060050e+01 -1.398150893118838312e+01 -5.275708568401831400e+01 5.119079859713687064e+00 1.119973814101060050e+01 5.119079859713687064e+00 -4.618112824450410869e+01
-6.963034879733190508e+01 -9.663594659673778509e+00 -7.781772195325370456e-01 -9.663594659673778509e+00 -8.360988790374290147e+01 -1.118475963863152600e+01 -7.781772195325370456e-01 -1.118475963863152600e+01 -3.396068594329522483e+01
1.171616952363528519e+01 3.045412410411720927e+01 -1.900657587966301065e+01 3.045412410411720927e+01 -3.088257624013101577e+01 -1.162118752701770008e+00 -1.900657587966301065e+01 -1.162118752701770008e+00 -2.292061476788432728e+01
-6.178396803359621714e+01 2.923471074841407003e+01 -1.232539787120624730e+01 2.923471074841407003e+01 -1.166844246906788669e+02 -1.067637215991317667e+01 -1.232539787120624730e+01 -1.067637215991317667e+01 -1.514340923171151871e+02
-1.187414112169698654e+02 3.071380816496430555e+01 2.845269687180394858e+00 3.071380816496430555e+01 -7.560675924800841585e+01 1.270150105419583397e+01 2.845269687180394858e+00 1.270150105419583397e+01 -9.659618011918955460e+01
-1.029658014590242345e+02 -2.401123964319838322e+01 1.768230627672449984e+01 -2.401123964319838322e+01 -1.220335676021672384e+02 1.910088536314436070e+01 1.768230627672449984e+01 1.910088536314436070e+01 -1.086991124467174359e+02
-8.588967146478719883e+01 -2.013643925407498969e+01 -8.196829428839872422e-01 -2.013643925407498969e+01 -3.801464677626743338e+01 -1.349553533751059220e+01 -8.196829428839872422e-01 -1.349553533751059220e+01 -3.666716108746142311e+01
-1.375839171045447813e+02 -2.873876864575061774e+01 -2.777329393601053553e+01 -2.873876864575061774e+01 -8.643617468803756765e+01 -4.133411101074533889e+01 -2.777329393601053553e+01 -4.133411101074533889e+01 -1.205260799389833863e+02
-7.712364479256157779e+01 9.265415908487845797e+00 -5.807603507361621453e+00 9.265415908487845797e+00 -3.344135637899385927e+01 2.971901543383302169e+01 -5.807603507361621453e+00 2.971901543383302169e+01 -6.885006544001068107e+01
-5.331959189449275982e+01 2.399467342333527853e+01 2.782209302580051968e+01 2.399467342333527853e+01 -9.337273327442694892e+01 -3.914591226280719383e+01 2.782209302580051968e+01 -3.914591226280719383e+01 -5.631000041497853204e+01
-1.077630096753039766e+02 -2.385671097584642553e+01 -1.541255915910272556e+01 -2.385671097584642553e+01 -1.164954586012711957e+02 -1.707078890375334268e+01 -1.541255915910272556e+01 -1.707078890375334268e+01 -3.892092967428197881e+01
-7.818805175305671185e+01 -3.262155178210175421e+01 -1.376736580237577279e+01 -3.262155178210175421e+01 -7.379378640558390146e+01 -9.816025772376026026e+00 -1.376736580237577279e+01 -9.816025772376026026e+00 -7.890420478729322440e+01
-4.261452011690853681e+01 -8.000548543480153540e+00 9.087292643643516854e+00 -8.000548543480153540e+00 -3.624724102852825780e+01 2.827757105552880290e+01 9.087292643643516854e+00 2.827757105552880290e+01 -1.019541076727142297e+02
-7.142121924642071917e+01 3.164429739187506474e+00 -1.740989995946363678e+01 3.164429739187506474e+00 -9.859674548376608527e+01 -6.702909508192170129e+00 -1.740989995946363678e+01 -6.702909508192170129e+00 -6.018547194194831462e+01
-9.931297578626603695e+01 2.504893834083825865e+01 3.686219718654906075e+01 2.504893834083825865e+01 -7.476839198567806477e+01 2.727779109425087167e+00 3.686219718654906075e+01 2.727779109425087167e+00 -2.135707862140052171e+01
-5.965782874522655277e+01 7.364673896814387666e-01 -1.504599415422504016e+01 7.364673896814387666e-01 -6.111814696503123656e+01 -1.452965998294170369e+01 -1.504599415422504016e+01 -1.452965998294170369e+01 -1.062567437073063701e+02
-4.376452990479121041e+01 -2.417073956736329876e+01 -1.140876862897055410e+01 -2.417073956736329876e+01 -1.303641508581631037e+01 3.007827379485271013e+00 -1.140876862897055410e+01 3.007827379485271013e+00 -4.686094480559259523e+01
-6.291869285956884283e+01 -2.591302379626250385e+01 -8.166167977470410122e+00 -2.591302379626250385e+01 -4.236956806884284532e+01 -1.262634646861650189e+01 -8.166167977470410122e+00 -1.262634646861650189e+01 -5.877990572069863617e+01
-8.047838635116180228e+01 4.220197426617973946e+01 -2.689013034215371079e+01 4.220197426617973946e+01 -1.862914003829646248e+01 -4.828895950627303257e+00 -2.689013034215371079e+01 -4.828895950627303257e+00 -6.876568885820489641e+01
-8.104741344806679137e+01 6.001103609168108477e+00 2.009219878086672573e+00 6.001103609168108477e+00 -1.037752572562712174e+02 -3.753539188305988716e+01 2.009219878086672573e+00 -3.753539188305988716e+01 -1.039687944477051644e+02
-6.670704627067448200e+01 3.743085320054106546e+01 -8.957937482276578933e+00 3.743085320054106546e+01 -2.348373655237447721e+01 -1.004651755247038913e+01 -8.957937482276578933e+00 -1.004651755247038913e+01 -3.299854052217441591e+01
-9.897223936591949212e+01 2.732407427043859638e+00 2.767703210540451053e+01 2.732407427043859638e+00 -1.047986022750393289e+02 -1.614267608627769590e+01 2.767703210540451053e+01 -1.614267608627769590e+01 -1.011112315675442517e+02
-8.776457704097758494e+01 2.435093564586636106e+01 3.362363963720667215e+01 2.435093564586636106e+01 -7.103706791864344439e+01 1.529391327583172755e+00 3.362363963720667215e+01 1.529391327583172755e+00 -3.183052715890348949e+01
-5.537938197924259498e+01 -5.857150883201504143e+01 -1.746135843558356981e+01 -5.857150883201504143e+01 -7.395478865381940636e+01 6.697857392200006643e+00 -1.746135843558356981e+01 6.697857392200006643e+00 -8.467993193464900514e+01
-7.232711525485181880e+01 -3.811456218836632548e+00 -2.146914817741077997e+01 -3.811456218836632548e+00 -5.155184418081840647e+01 9.343361542287192734e+00 -2.146914817741077997e+01 9.343361542287192734e+00 -3.498391160508921160e+01
-3.656094290689568993e+01 1.678386720580899194e+01 1.460599324206760308e+01 1.678386720580899194e+01 -4.557128422358092479e+01 -9.278606010137295357e+00 1.460599324206760308e+01 -9.278606010137295357e+00 -8.566802751258424564e+01
-9.765013593675560344e+01 1.323245250111986948e+01 2.119748021375847102e+01 1.323245250111986948e+01 -8.667959465228821614e+01 -1.433995341626784104e+01 2.119748021375847102e+01 -1.433995341626784104e+01 -6.531332836074574288e+01
-7.135842669784196346e+01 -3.307742232944937655e+01 1.530922092503628740e+01 -3.307742232944937655e+01 -4.993236972745831537e+01 -2.971962334164305020e+01 1.530922092503628740e+01 -2.971962334164305020e+01 -1.205649186725073463e+02
-1.341956906403457310e+02 -3.061416005475113611e+00 1.912633069058132662e+01 -3.061416005475113611e+00 -1.092029559090644142e+02 -5.813327895817272406e+01 1.912633069058132662e+01 -5.813327895817272406e+01 -9.771607454785299751e+01
-9.650334635643440606e+01 9.961251324850810107e+00 -2.470801808578848124e+00 9.961251324850810107e+00 -1.013773473010718789e+02 8.419082455858937664e+00 -2.470801808578848124e+00 8.419082455858937664e+00 -9.774799746482257490e+01
-4.584433712869823374e+00 2.014017713319789138e+01 -5.430559508661846024e+01 2.014017713319789138e+01 -4.990069376512798272e+01 -2.009394853816654170e+00 -5.430559508661846024e+01 -2.009394853816654170e+00 -2.819153991514908597e+01
-7.476821558114474442e+01 -2.543206860903578459e+01 1.828722343341831547e+01 -2.543206860903578459e+01 -7.672703106828365094e+01 2.532385972433270638e+01 1.828722343341831547e+01 2.532385972433270638e+01 -9.694156282966827121e+01
-9.592818919824331658e+01 -2.217622118258223907e+01 3.964176436703050310e+00 -2.217622118258223907e+01 -4.493044132975808935e+01 -1.774690923928475428e+01 3.964176436703050310e+00 -1.774690923928475428e+01 -4.356094096711548502e+01
-8.160247057102237989e+01 -3.793875425271642232e+00 -6.107206524178908857e+00 -3.793875425271642232e+00 -7.479457067064443265e+01 8.952237576438614397e+00 -6.107206524178908857e+00 8.952237576438614397e+00 -7.456927679584180169e+01
-8.184446650309868687e+01 -1.464678182337739365e+01 -1.868756802241519210e+01 -1.464678182337739365e+01 -4.623162493994720279e+01 -2.741344772126702267e+01 -1.868756802241519210e+01 -2.741344772126702267e+01 -1.367162138499998036e+02
-7.538483042266008738e+01 -8.881373595893194306e+00 -2.624205888989702729e+01 -8.881373595893194306e+00 -6.695359537173196429e+01 3.783254363062368952e+01 -2.624205888989702729e+01 3.783254363062368952e+01 -2.712225117734917035e+01
-5.623392114805895403e+01 1.641129775376221289e+01 -1.178291478918834478e+01 1.641129775376221289e+01 -2.376267895679810849e+01 4.719989315905257499e+00 -1.178291478918834478e+01 4.719989315905257499e+00 -5.743928428247704687e+01
-8.116727268050783550e+01 -8.024394906575313513e+00 3.255272319364804190e+01 -8.024394906575313513e+00 -7.226786952707065836e+01 -2.791279771868478932e+01 3.255272319364804190e+01 -2.791279771868478932e+01 -2.417142447771916025e+01
-1.046158327939107835e+02 3.039785071835045471e+01 -1.866907557647853366e+01 3.039785071835045471e+01 -8.327791751945827059e+01 -2.810079311038721528e+01 -1.866907557647853366e+01 -2.810079311038721528e+01 -4.534833248096884262e+01
-7.997964898235309761e+01 2.822217264935599701e+01 5.266120765478067511e+01 2.822217264935599701e+01 -3.858112032718430129e+01 -6.232827797027563399e+00 5.266120765478067511e+01 -6.232827797027563399e+00 -1.067211351893933227e+02
-2.006580860385114207e+01 -3.187812525074896097e+00 -8.482629573251494748e-02 -3.187812525074896097e+00 -3.485128160940426767e+01 -8.071637655474836137e+00 -8.482629573251494748e-02 -8.071637655474836137e+00 -2.894459719214032845e+01
-2.707806161352792174e+01 3.759117650075668449e-01 9.582953117889351446e+00 3.759117650075668449e-01 -1.223323022646558833e+01 1.444895714664150610e+01 9.582953117889351446e+00 1.444895714664150610e+01 -5.232796168379018553e+01
-7.290019451943497586e+01 5.848395447140720904e+00 -1.589665881572106443e+01 5.848395447140720904e+00 -2.637545057327278641e+01 -3.073217382944718423e+01 -1.589665881572106443e+01 -3.073217382944718423e+01 -5.613700970178376792e+01
2.008958885927411941e+01 -7.143102251003274894e+00 -2.423017970563487111e+01 -7.143102251003274894e+00 -7.338806297690700831e+01 3.655951241385647421e+01 -2.423017970563487111e+01 3.655951241385647421e+01 -6.425747801474885534e+01
-4.666108181474705674e+01 -5.272923140959967725e+01 1.884995673423999918e+01 -5.272923140959967725e+01 -1.350389946850542522e+01 -4.344887290056536244e+01 1.884995673423999918e+01 -4.344887290056536244e+01 -5.740865111074794669e+01
-4.332421541225240702e+01 3.838432423128958249e+01 -1.857341884124195985e+01 3.838432423128958249e+01 -8.885892133375828905e+01 -4.783868489947156633e+01 -1.857341884124195985e+01 -4.783868489947156633e+01 -7.520820677492966411e+01
-1.099315383476770194e+02 1.136357760642187520e+00 5.322679919582117947e+01 1.136357760642187520e+00 -9.098994979114733894e+01 2.480859926014562689e+01 5.322679919582117947e+01 2.480859926014562689e+01 -4.958213909199797342e+01
-5.683247846200985975e+01 7.128334925394503863e+00 4.648238887009591203e+00 7.128334925394503863e+00 -3.817956863230818243e+01 1.131880726431928252e+01 4.648238887009591203e+00 1.131880726431928252e+01 -5.795908876041645641e+01
-1.198843670053813923e+02 2.020653925438848364e-01 -6.346876235364037555e+00 2.020653925438848364e-01 -1.250534968718217073e+02 2.073779041560334235e+01 -6.346876235364037555e+00 2.073779041560334235e+01 -7.135271446054203182e+01
-4.057800154997333664e+01 4.763646419369197416e-01 7.057403827739299196e+00 4.763646419369197416e-01 -6.615141546247063786e+01 1.247785456521356728e+01 7.057403827739299196e+00 1.247785456521356728e+01 -3.647610409369551121e+01
-6.318120711494904640e+01 -1.107530579310568797e+01 -5.032695435467572587e+00 -1.107530579310568797e+01 -8.462708746379687952e+00 -2.909624703934269263e+01 -5.032695435467572587e+00 -2.909624703934269263e+01 -8.142093370372236905e+01
-8.653663623395593163e+01 -8.969213749819557435e+00 -3.310333056978432609e+01 -8.969213749819557435e+00 -9.644950179628860099e+01 -1.839437888712051716e+01 -3.310333056978432609e+01 -1.839437888712051716e+01 -4.506484761587637422e+01
-4.952391360582777224e+01 1.494733441530610385e+01 7.250279262903132960e+00 1.494733441530610385e+01 -6.902995808475560580e+01 4.115178785255650240e+01 7.250279262903132960e+00 4.115178785255650240e+01 -1.363982691563746243e+02
-1.121490262965947551e+02 -1.567196524166691951e+01 -1.690949377352162841e+01 -1.567196524166691951e+01 -6.062458795602614003e+01 3.905544547826934831e+01 -1.690949377352162841e+01 3.905544547826934831e+01 -9.819908560347462867e+01
-1.629483478945529384e+02 1.618617642255977174e+01 -3.614620295296616348e+01 1.618617642255977174e+01 -8.848184430984385074e+01 -1.482581811595742494e+01 -3.614620295296616348e+01 -1.482581811595742494e+01 -6.673866059357325753e+01
-7.862146453599143570e+01 -1.118952247271971068e+01 4.888192226342766844e+00 -1.118952247271971068e+01 -7.361091066247374215e+01 -1.646427648688024270e+00 4.888192226342766844e+00 -1.646427648688024270e+00 -1.162704001772972902e+02
-9.487165613996100433e+01 -1.902471010920368633e+00 -2.863260228881419511e+00 -1.902471010920368633e+00 -5.960074299265695430e+01 -2.369186356598290644e+01 -2.863260228881419511e+00 -2.369186356598290644e+01 -6.451822930146016688e+01
-5.360934632761697571e+01 5.366410167983654844e+01 -8.068272620052939104e+00 5.366410167983654844e+01 -9.264523749129263308e+01 1.243770594998091283e+01 -8.068272620052939104e+00 1.243770594998091283e+01 -1.234106936826494305e+01
1.734611104053069619e+00 -1.906992878277845804e+01 6.053466758257542990e-01 -1.906992878277845804e+01 -6.228502799804380174e+01 1.773955385423295228e+00 6.053466758257542990e-01 1.773955385423295228e+00 -6.618571934144421220e+01
-1.048328065356026286e+02 3.462773159506925680e+01 -3.436800785398275337e+01 3.462773159506925680e+01 -1.353848642897901300e+02 -7.182266266313358294e+00 -3.436800785398275337e+01 -7.182266266313358294e+00 -1.106732029769669623e+02
-4.817635052155280562e+01 2.531308979722660979e+01 -2.167720798179689012e+01 2.531308979722660979e+01 -6.302749209351122772e+01 -3.802173919770751809e+01 -2.167720798179689012e+01 -3.802173919770751809e+01 -4.364250171115416777e+01
-7.626865913256821727e+01 -2.160668490902339656e+01 8.014611171616889962e+00 -2.160668490902339656e+01 -1.461668197789693409e+02 2.367386578031367250e+01 8.014611171616889962e+00 2.367386578031367250e+01 -1.484136721616992816e+02
-8.521749574957097195e+01 2.123247664221522513e+01 -2.054583370041881807e+01 2.123247664221522513e+01 -1.287497340873736391e+02 8.434096757647026266e+00 -2.054583370041881807e+01 8.434096757647026266e+00 -1.079668438941659474e+02
-9.481380263231530137e+01 -1.629625191952315699e+00 1.332932801642457754e+01 -1.629625191952315699e+00 -8.069805745365287919e+01 -2.163507056636284887e+01 1.332932801642457754e+01 -2.163507056636284887e+01 -8.933028316676319491e+01
-3.111751865960586727e+01 9.313617112992160330e+00 9.406437687345954757e+00 9.313617112992160330e+00 -9.241135333865430823e+01 -8.081817233900178366e+00 9.406437687345954757e+00 -8.081817233900178366e+00 -6.000397984029537213e+01
-7.779357118740003330e+01 3.939471461449211631e+01 2.217838424686450338e+01 3.939471461449211631e+01 -8.110794000396414560e+01 -6.395545802473493779e+01 2.217838424686450338e+01 -6.395545802473493779e+01 -9.340884970692877687e+01
-5.310663852122013395e+01 -1.215303010818541862e+00 -2.204219377058526419e+01 -1.215303010818541862e+00 -8.247559156143236692e+01 3.239995774816978980e+01 -2.204219377058526419e+01 3.239995774816978980e+01 -6.016681032076733260e+01
-1.499363393133993156e+02 -2.660512160771153845e+01 -2.015744890972035464e+01 -2.660512160771153845e+01 -8.298067388102427344e+01 -8.766441654937409567e+00 -2.015744890972035464e+01 -8.766441654937409567e+00 1.380181991271611253e+01
-4.575201131559696677e+01 2.381052514994802749e+01 3.093841778756952010e+01 2.381052514994802749e+01 -4.305238432286662942e+01 -5.199531921666983081e+00 3.093841778756952010e+01 -5.199531921666983081e+00 -7.406345690682755389e+01
-2.278181874433801823e+00 -3.003670685236973448e+00 1.585545388885059204e+01 -3.003670685236973448e+00 -3.678726080115460917e+01 -4.858418411798156455e+01 1.585545388885059204e+01 -4.858418411798156455e+01 2.133333044712000159e+01
-9.900654323654653410e+01 -2.675611136885511243e+01 -1.819711679847804930e+01 -2.675611136885511243e+01 -5.965986443464880296e+01 -1.836800976851491995e+01 -1.819711679847804930e+01 -1.836800976851491995e+01 -8.270291432470219206e+01
-1.479896929100422831e+01 -4.845078414615134221e+00 -1.643476066701188998e+01 -4.845078414615134221e+00 -9.116996657111428704e+01 -1.783664900186495927e+01 -1.643476066701188998e+01 -1.783664900186495927e+01 -3.204538062806469867e+01
-1.011412203517131587e+02 -3.512796859650121206e+01 -7.827910646555968022e+00 -3.512796859650121206e+01 -7.268995181909504311e+01 -8.602915794237173230e+00 -7.827910646555968022e+00 -8.602915794237173230e+00 -4.327700299649522719e+01
-6.332236518116604174e+01 3.799929696777005717e+01 6.289052565169478015e+01 3.799929696777005717e+01 -6.166464472058440549e+01 -7.441160830983064578e-01 6.289052565169478015e+01 -7.441160830983064578e-01 -4.621461245633446424e+01
-9.128469158247278870e+01 5.384093358532173745e+00 -4.017546231032314097e+01 5.384093358532173745e+00 -9.820080037690269137e+01 -7.336084880328807678e+00 -4.017546231032314097e+01 -7.336084880328807678e+00 -8.575345096126640954e+01
-5.542587289298572983e+01 -6.175993986139169500e+00 7.990790400656605286e+00 -6.175993986139169500e+00 -1.087944419454734373e+02 -1.875830346528164227e+01 7.990790400656605286e+00 -1.875830346528164227e+01 -7.211358956587672253e+01
-1.264337218327195700e+02 -2.737383670421483117e+01 -2.568036344326747411e+01 -2.737383670421483117e+01 -8.763152049697551149e+01 8.397404497783290012e+00 -2.568036344326747411e+01 8.397404497783290012e+00 -5.559106250843102259e+01
-1.570330829700502306e+01 2.505249347084454570e+01 -7.480400334095962833e+00 2.505249347084454570e+01 2.510754962238679511e+01 -4.378366164692669038e+00 -7.480400334095962833e+00 -4.378366164692669038e+00 -9.902892308459190929e+01
-3.184016852180254986e+00 1.568580306793435497e+01 2.404165445430889392e+01 1.568580306793435497e+01 -5.851832163529048358e+01 -5.338175310721156919e+00 2.404165445430889392e+01 -5.338175310721156919e+00 -3.756176442042896468e+01
9.575851239939305870e+00 2.221641183381917628e+00 -7.899115057764768189e+00 2.221641183381917628e+00 -8.175060345166033926e+01 -5.511094280328533657e+00 -7.899115057764768189e+00 -5.511094280328533657e+00 -3.216759392917951033e+01
-2.066248231948921088e+01 -2.532705357322559525e+00 4.252921490307167041e+00 -2.532705357322559525e+00 -6.669753731222579063e+01 1.578322716714425944e+01 4.252921490307167041e+00 1.578322716714425944e+01 -5.334026115173493565e+01
-9.826273822017309101e+01 -4.560173197819516133e+01 1.324969080206463268e+01 -4.560173197819516133e+01 2.935027634968715216e+00 -3.385543225079724294e+01 1.324969080206463268e+01 -3.385543225079724294e+01 -5.986419458239831215e+01
-6.169678870455381769e+01 8.377392018071990520e+00 -1.678065638135167603e+01 8.377392018071990520e+00 -5.575774138384296208e+01 -3.173780525616717796e+01 -1.678065638135167603e+01 -3.173780525616717796e+01 -5.989649775598050496e+01
-3.930948479245746796e+01 -1.162175660234634034e+00 -4.436915624260775459e+00 -1.162175660234634034e+00 -4.851588658728144310e+01 -7.165663936589501404e+00 -4.436915624260775459e+00 -7.165663936589501404e+00 -8.574142079684411044e+01
-6.509366497042289268e+01 2.880516496760202383e+00 6.276665745596338830e+00 2.880516496760202383e+00 -8.264697873178776888e+01 -1.286808919843752719e+01 6.276665745596338830e+00 -1.286808919843752719e+01 -1.033424234203978926e+02
-7.907543643435164427e+01 -2.136566339599226083e+01 9.470486916909102604e+00 -2.136566339599226083e+01 -3.295712186023185808e+01 -2.051267025900182972e+01 9.470486916909102604e+00 -2.051267025900182972e+01 -4.722145027791804495e+01
-9.592048422163539101e+01 -9.775345964354359651e+00 2.420596791093274902e+01 -9.775345964354359651e+00 -7.132006004728391702e+01 -2.605818439678934340e+00 2.420596791093274902e+01 -2.605818439678934340e+00 -5.098333762708666939e+01
-7.133658924331361106e+01 -1.755801638155428535e+01 3.117501363401735759e+01 -1.755801638155428535e+01 -9.685468054464011800e+01 -4.227171555113332602e+01 3.117501363401735759e+01 -4.227171555113332602e+01 -6.794409135566851887e+01
-5.657606976084827721e+01 -5.827117204953334850e-01 3.213509377304798420e+01 -5.827117204953334850e-01 -7.499121173208735058e+01 4.026172081028214222e+01 3.213509377304798420e+01 4.026172081028214222e+01 -1.351429550316372286e+02
-6.660806008849010595e+01 2.708709552822596578e+01 -9.759065113877865016e+00 2.708709552822596578e+01 -1.141289809471409313e+02 2.070496127758041283e+01 -9.759065113877865016e+00 2.070496127758041283e+01 -1.907330499368314491e+01
-4.248586987197279541e+01 5.810068711852693468e+00 1.765351178665464316e+00 5.810068711852693468e+00 -8.596427592810840679e+01 -1.560571257558175606e+00 1.765351178665464316e+00 -1.560571257558175606e+00 -3.146188774150921219e+01
-5.264168787668150884e+01 2.851850083209226483e+01 2.378833188870491000e+01 2.851850083209226483e+01 -1.003688819507343055e+02 8.072667346896743590e-01 2.378833188870491000e+01 8.072667346896743590e-01 -1.176519900023917131e+02
-8.928255481907177682e+01 -1.224133122246627003e+01 4.204249166417974948e+01 -1.224133122246627003e+01 -2.211033589920713638e+01 -2.931831863313582787e+01 4.204249166417974948e+01 -2.931831863313582787e+01 -3.637335105237879418e+01
-5.046991873810139850e+01 -4.738912052285172649e+00 -1.094705638841208817e+01 -4.738912052285172649e+00 -7.443108923627410434e+01 -2.367643567339973387e+01 -1.094705638841208817e+01 -2.367643567339973387e+01 -3.178962149000352611e+01
-1.318438489521843451e+02 -2.040384551334656749e+01 1.271139761991655703e+01 -2.040384551334656749e+01 -6.211630410006065262e+01 1.427946053797024106e+01 1.271139761991655703e+01 1.427946053797024106e+01 -1.081214294130093236e+02
-1.088349862604762848e+02 2.678956360977813844e+01 8.967002570618381796e+00 2.678956360977813844e+01 -6.378677598412704697e+01 -5.052778712021619434e+00 8.967002570618381796e+00 -5.052778712021619434e+00 -1.698198119916539639e+01
-6.987858931488396763e+01 -1.548672417963729231e+01 1.090738631265341851e+01 -1.548672417963729231e+01 -4.486525414237326714e+01 -3.612403216884686685e+01 1.090738631265341851e+01 -3.612403216884686685e+01 -8.744251486190174205e+01