1.157799999999999940e+01 0.000000000000000000e+00 0.000000000000000000e+00 0.000000000000000000e+00 1.157799999999999940e+01 0.000000000000000000e+00 0.000000000000000000e+00 0.000000000000000000e+00 1.157799999999999940e+01
1.135599999999999987e+01 0.000000000000000000e+00 0.000000000000000000e+00 0.000000000000000000e+00 1.135599999999999987e+01 0.000000000000000000e+00 0.000000000000000000e+00 0.000000000000000000e+00 1.135599999999999987e+01
1.181400000000000006e+01 0.000000000000000000e+00 0.000000000000000000e+00 0.000000000000000000e+00 1.181400000000000006e+01 0.000000000000000000e+00 0.000000000000000000e+00 0.000000000000000000e+00 1.181400000000000006e+01
1.137899999999999956e+01 0.000000000000000000e+00 0.000000000000000000e+00 0.000000000000000000e+00 1.137899999999999956e+01 0.000000000000000000e+00 0.000000000000000000e+00 0.000000000000000000e+00 1.137899999999999956e+01
1.174900000000000055e+01 0.000000000000000000e+00 0.000000000000000000e+00 0.000000000000000000e+00 1.174900000000000055e+01 0.000000000000000000e+00 0.000000000000000000e+00 0.000000000000000000e+00 1.174900000000000055e+01
1.136200000000000010e+01 0.000000000000000000e+00 0.000000000000000000e+00 0.000000000000000000e+00 1.136200000000000010e+01 0.000000000000000000e+00 0.000000000000000000e+00 0.000000000000000000e+00 1.136200000000000010e+01
1.165499999999999936e+01 0.000000000000000000e+00 0.000000000000000000e+00 0.000000000000000000e+00 1.165499999999999936e+01 0.000000000000000000e+00 0.000000000000000000e+00 0.000000000000000000e+00 1.165499999999999936e+01
1.136899999999999977e+01 0.000000000000000000e+00 0.000000000000000000e+00 0.000000000000000000e+00 1.136899999999999977e+01 0.000000000000000000e+00 0.000000000000000000e+00 0.000000000000000000e+00 1.136899999999999977e+01
1.161400000000000077e+01 0.000000000000000000e+00 0.000000000000000000e+00 0.000000000000000000e+00 1.161400000000000077e+01 0.000000000000000000e+00 0.000000000000000000e+00 0.000000000000000000e+00 1.161400000000000077e+01
1.167600000000000016e+01 0.000000000000000000e+00 0.000000000000000000e+00 0.000000000000000000e+00 1.167600000000000016e+01 0.000000000000000000e+00 0.000000000000000000e+00 0.000000000000000000e+00 1.167600000000000016e+01
1.141399999999999970e+01 0.000000000000000000e+00 0.000000000000000000e+00 0.000000000000000000e+00 1.141399999999999970e+01 0.000000000000000000e+00 0.000000000000000000e+00 0.000000000000000000e+00 1.141399999999999970e+01
1.136700000000000088e+01 0.000000000000000000e+00 0.000000000000000000e+00 0.000000000000000000e+00 1.136700000000000088e+01 0.000000000000000000e+00 0.000000000000000000e+00 0.000000000000000000e+00 1.136700000000000088e+01
1.138199999999999967e+01 0.000000000000000000e+00 0.000000000000000000e+00 0.000000000000000000e+00 1.138199999999999967e+01 0.000000000000000000e+00 0.000000000000000000e+00 0.000000000000000000e+00 1.138199999999999967e+01
1.139300000000000068e+01 0.000000000000000000e+00 0.000000000000000000e+00 0.000000000000000000e+00 1.139300000000000068e+01 0.000000000000000000e+00 0.000000000000000000e+00 0.000000000000000000e+00 1.139300000000000068e+01
1.138000000000000078e+01 0.000000000000000000e+00 0.000000000000000000e+00 0.000000000000000000e+00 1.138000000000000078e+01 0.000000000000000000e+00 0.000000000000000000e+00 0.000000000000000000e+00 1.138000000000000078e+01
1.138299999999999912e+01 0.000000000000000000e+00 0.000000000000000000e+00 0.000000000000000000e+00 1.138299999999999912e+01 0.000000000000000000e+00 0.000000000000000000e+00 0.000000000000000000e+00 1.138299999999999912e+01
1.135899999999999999e+01 0.000000000000000000e+00 0.000000000000000000e+00 0.000000000000000000e+00 1.135899999999999999e+01 0.000000000000000000e+00 0.000000000000000000e+00 0.000000000000000000e+00 1.135899999999999999e+01
1.136999999999999922e+01 0.000000000000000000e+00 0.000000000000000000e+00 0.000000000000000000e+00 1.136999999999999922e+01 0.000000000000000000e+00 0.000000000000000000e+00 0.000000000000000000e+00 1.136999999999999922e+01
1.174399999999999977e+01 0.000000000000000000e+00 0.000000000000000000e+00 0.000000000000000000e+00 1.174399999999999977e+01 0.000000000000000000e+00 0.000000000000000000e+00 0.000000000000000000e+00 1.174399999999999977e+01
1.162599999999999945e+01 0.000000000000000000e+00 0.000000000000000000e+00 0.000000000000000000e+00 1.162599999999999945e+01 0.000000000000000000e+00 0.000000000000000000e+00 0.000000000000000000e+00 1.162599999999999945e+01
1.138499999999999979e+01 0.000000000000000000e+00 0.000000000000000000e+00 0.000000000000000000e+00 1.138499999999999979e+01 0.000000000000000000e+00 0.000000000000000000e+00 0.000000000000000000e+00 1.138499999999999979e+01
1.140000000000000036e+01 0.000000000000000000e+00 0.000000000000000000e+00 0.000000000000000000e+00 1.140000000000000036e+01 0.000000000000000000e+00 0.000000000000000000e+00 0.000000000000000000e+00 1.140000000000000036e+01
1.135699999999999932e+01 0.000000000000000000e+00 0.000000000000000000e+00 0.000000000000000000e+00 1.135699999999999932e+01 0.000000000000000000e+00 0.000000000000000000e+00 0.000000000000000000e+00 1.135699999999999932e+01
1.134900000000000020e+01 0.000000000000000000e+00 0.000000000000000000e+00 0.000000000000000000e+00 1.134900000000000020e+01 0.000000000000000000e+00 0.000000000000000000e+00 0.000000000000000000e+00 1.134900000000000020e+01
1.139100000000000001e+01 0.000000000000000000e+00 0.000000000000000000e+00 0.000000000000000000e+00 1.139100000000000001e+01 0.000000000000000000e+00 0.000000000000000000e+00 0.000000000000000000e+00 1.139100000000000001e+01
1.135699999999999932e+01 0.000000000000000000e+00 0.000000000000000000e+00 0.000000000000000000e+00 1.135699999999999932e+01 0.000000000000000000e+00 0.000000000000000000e+00 0.000000000000000000e+00 1.135699999999999932e+01
1.156600000000000072e+01 0.000000000000000000e+00 0.000000000000000000e+00 0.000000000000000000e+00 1.156600000000000072e+01 0.000000000000000000e+00 0.000000000000000000e+00 0.000000000000000000e+00 1.156600000000000072e+01
1.137400000000000055e+01 0.000000000000000000e+00 0.000000000000000000e+00 0.000000000000000000e+00 1.137400000000000055e+01 0.000000000000000000e+00 0.000000000000000000e+00 0.000000000000000000e+00 1.137400000000000055e+01
1.138499999999999979e+01 0.000000000000000000e+00 0.000000000000000000e+00 0.000000000000000000e+00 1.138499999999999979e+01 0.000000000000000000e+00 0.000000000000000000e+00 0.000000000000000000e+00 1.138499999999999979e+01
1.159299999999999997e+01 0.000000000000000000e+00 0.000000000000000000e+00 0.000000000000000000e+00 1.159299999999999997e+01 0.000000000000000000e+00 0.000000000000000000e+00 0.000000000000000000e+00 1.159299999999999997e+01
1.138700000000000045e+01 0.000000000000000000e+00 0.000000000000000000e+00 0.000000000000000000e+00 1.138700000000000045e+01 0.000000000000000000e+00 0.000000000000000000e+00 0.000000000000000000e+00 1.138700000000000045e+01
1.150300000000000011e+01 0.000000000000000000e+00 0.000000000000000000e+00 0.000000000000000000e+00 1.150300000000000011e+01 0.000000000000000000e+00 0.000000000000000000e+00 0.000000000000000000e+00 1.150300000000000011e+01
1.136200000000000010e+01 0.000000000000000000e+00 0.000000000000000000e+00 0.000000000000000000e+00 1.136200000000000010e+01 0.000000000000000000e+00 0.000000000000000000e+00 0.000000000000000000e+00 1.136200000000000010e+01
1.146899999999999942e+01 0.000000000000000000e+00 0.000000000000000000e+00 0.000000000000000000e+00 1.146899999999999942e+01 0.000000000000000000e+00 0.000000000000000000e+00 0.000000000000000000e+00 1.146899999999999942e+01
1.171499999999999986e+01 0.000000000000000000e+00 0.000000000000000000e+00 0.000000000000000000e+00 1.171499999999999986e+01 0.000000000000000000e+00 0.000000000000000000e+00 0.000000000000000000e+00 1.171499999999999986e+01
1.136899999999999977e+01 0.000000000000000000e+00 0.000000000000000000e+00 0.000000000000000000e+00 1.136899999999999977e+01 0.000000000000000000e+00 0.000000000000000000e+00 0.000000000000000000e+00 1.136899999999999977e+01
1.150000000000000000e+01 0.000000000000000000e+00 0.000000000000000000e+00 0.000000000000000000e+00 1.150000000000000000e+01 0.000000000000000000e+00 0.000000000000000000e+00 0.000000000000000000e+00 1.150000000000000000e+01
1.181799999999999962e+01 0.000000000000000000e+00 0.000000000000000000e+00 0.000000000000000000e+00 1.181799999999999962e+01 0.000000000000000000e+00 0.000000000000000000e+00 0.000000000000000000e+00 1.181799999999999962e+01
1.141999999999999993e+01 0.000000000000000000e+00 0.000000000000000000e+00 0.000000000000000000e+00 1.141999999999999993e+01 0.000000000000000000e+00 0.000000000000000000e+00 0.000000000000000000e+00 1.141999999999999993e+01
1.138000000000000078e+01 0.000000000000000000e+00 0.000000000000000000e+00 0.000000000000000000e+00 1.138000000000000078e+01 0.000000000000000000e+00 0.000000000000000000e+00 0.000000000000000000e+00 1.138000000000000078e+01
1.135699999999999932e+01 0.000000000000000000e+00 0.000000000000000000e+00 0.000000000000000000e+00 1.135699999999999932e+01 0.000000000000000000e+00 0.000000000000000000e+00 0.000000000000000000e+00 1.135699999999999932e+01
1.172100000000000009e+01 0.000000000000000000e+00 0.000000000000000000e+00 0.000000000000000000e+00 1.172100000000000009e+01 0.000000000000000000e+00 0.000000000000000000e+00 0.000000000000000000e+00 1.172100000000000009e+01
1.138700000000000045e+01 0.000000000000000000e+00 0.000000000000000000e+00 0.000000000000000000e+00 1.138700000000000045e+01 0.000000000000000000e+00 0.000000000000000000e+00 0.000000000000000000e+00 1.138700000000000045e+01
1.140600000000000058e+01 0.000000000000000000e+00 0.000000000000000000e+00 0.000000000000000000e+00 1.140600000000000058e+01 0.000000000000000000e+00 0.000000000000000000e+00 0.000000000000000000e+00 1.140600000000000058e+01
1.138400000000000034e+01 0.000000000000000000e+00 0.000000000000000000e+00 0.000000000000000000e+00 1.138400000000000034e+01 0.000000000000000000e+00 0.000000000000000000e+00 0.000000000000000000e+00 1.138400000000000034e+01
1.136999999999999922e+01 0.000000000000000000e+00 0.000000000000000000e+00 0.000000000000000000e+00 1.136999999999999922e+01 0.000000000000000000e+00 0.000000000000000000e+00 0.000000000000000000e+00 1.136999999999999922e+01
1.137500000000000000e+01 0.000000000000000000e+00 0.000000000000000000e+00 0.000000000000000000e+00 1.137500000000000000e+01 0.000000000000000000e+00 0.000000000000000000e+00 0.000000000000000000e+00 1.137500000000000000e+01
1.134500000000000064e+01 0.000000000000000000e+00 0.000000000000000000e+00 0.000000000000000000e+00 1.134500000000000064e+01 0.000000000000000000e+00 0.000000000000000000e+00 0.000000000000000000e+00 1.134500000000000064e+01
1.134299999999999997e+01 0.000000000000000000e+00 0.000000000000000000e+00 0.000000000000000000e+00 1.134299999999999997e+01 0.000000000000000000e+00 0.000000000000000000e+00 0.000000000000000000e+00 1.134299999999999997e+01
1.138100000000000023e+01 0.000000000000000000e+00 0.000000000000000000e+00 0.000000000000000000e+00 1.138100000000000023e+01 0.000000000000000000e+00 0.000000000000000000e+00 0.000000000000000000e+00 1.138100000000000023e+01
1.147400000000000020e+01 0.000000000000000000e+00 0.000000000000000000e+00 0.000000000000000000e+00 1.147400000000000020e+01 0.000000000000000000e+00 0.000000000000000000e+00 0.000000000000000000e+00 1.147400000000000020e+01
1.143399999999999928e+01 0.000000000000000000e+00 0.000000000000000000e+00 0.000000000000000000e+00 1.143399999999999928e+01 0.000000000000000000e+00 0.000000000000000000e+00 0.000000000000000000e+00 1.143399999999999928e+01
1.138400000000000034e+01 0.000000000000000000e+00 0.000000000000000000e+00 0.000000000000000000e+00 1.138400000000000034e+01 0.000000000000000000e+00 0.000000000000000000e+00 0.000000000000000000e+00 1.138400000000000034e+01
1.163700000000000045e+01 0.000000000000000000e+00 0.000000000000000000e+00 0.000000000000000000e+00 1.163700000000000045e+01 0.000000000000000000e+00 0.000000000000000000e+00 0.000000000000000000e+00 1.163700000000000045e+01
1.181300000000000061e+01 0.000000000000000000e+00 0.000000000000000000e+00 0.000000000000000000e+00 1.181300000000000061e+01 0.000000000000000000e+00 0.000000000000000000e+00 0.000000000000000000e+00 1.181300000000000061e+01
1.137100000000000044e+01 0.000000000000000000e+00 0.000000000000000000e+00 0.000000000000000000e+00 1.137100000000000044e+01 0.000000000000000000e+00 0.000000000000000000e+00 0.000000000000000000e+00 1.137100000000000044e+01
1.136999999999999922e+01 0.000000000000000000e+00 0.000000000000000000e+00 0.000000000000000000e+00 1.136999999999999922e+01 0.000000000000000000e+00 0.000000000000000000e+00 0.000000000000000000e+00 1.136999999999999922e+01
1.167200000000000060e+01 0.000000000000000000e+00 0.000000000000000000e+00 0.000000000000000000e+00 1.167200000000000060e+01 0.000000000000000000e+00 0.000000000000000000e+00 0.000000000000000000e+00 1.167200000000000060e+01
1.148900000000000077e+01 0.000000000000000000e+00 0.000000000000000000e+00 0.000000000000000000e+00 1.148900000000000077e+01 0.000000000000000000e+00 0.000000000000000000e+00 0.000000000000000000e+00 1.148900000000000077e+01
1.169800000000000040e+01 0.000000000000000000e+00 0.000000000000000000e+00 0.000000000000000000e+00 1.169800000000000040e+01 0.000000000000000000e+00 0.000000000000000000e+00 0.000000000000000000e+00 1.169800000000000040e+01
1.138100000000000023e+01 0.000000000000000000e+00 0.000000000000000000e+00 0.000000000000000000e+00 1.138100000000000023e+01 0.000000000000000000e+00 0.000000000000000000e+00 0.000000000000000000e+00 1.138100000000000023e+01
1.138000000000000078e+01 0.000000000000000000e+00 0.000000000000000000e+00 0.000000000000000000e+00 1.138000000000000078e+01 0.000000000000000000e+00 0.000000000000000000e+00 0.000000000000000000e+00 1.138000000000000078e+01
1.143099999999999916e+01 0.000000000000000000e+00 0.000000000000000000e+00 0.000000000000000000e+00 1.143099999999999916e+01 0.000000000000000000e+00 0.000000000000000000e+00 0.000000000000000000e+00 1.143099999999999916e+01
1.168500000000000050e+01 0.000000000000000000e+00 0.000000000000000000e+00 0.000000000000000000e+00 1.168500000000000050e+01 0.000000000000000000e+00 0.000000000000000000e+00 0.000000000000000000e+00 1.168500000000000050e+01
1.155899999999999928e+01 0.000000000000000000e+00 0.000000000000000000e+00 0.000000000000000000e+00 1.155899999999999928e+01 0.000000000000000000e+00 0.000000000000000000e+00 0.000000000000000000e+00 1.155899999999999928e+01
1.138700000000000045e+01 0.000000000000000000e+00 0.000000000000000000e+00 0.000000000000000000e+00 1.138700000000000045e+01 0.000000000000000000e+00 0.000000000000000000e+00 0.000000000000000000e+00 1.138700000000000045e+01
1.136599999999999966e+01 0.000000000000000000e+00 0.000000000000000000e+00 0.000000000000000000e+00 1.136599999999999966e+01 0.000000000000000000e+00 0.000000000000000000e+00 0.000000000000000000e+00 1.136599999999999966e+01
1.137700000000000067e+01 0.000000000000000000e+00 0.000000000000000000e+00 0.000000000000000000e+00 1.137700000000000067e+01 0.000000000000000000e+00 0.000000000000000000e+00 0.000000000000000000e+00 1.137700000000000067e+01
1.180300000000000082e+01 0.000000000000000000e+00 0.000000000000000000e+00 0.000000000000000000e+00 1.180300000000000082e+01 0.000000000000000000e+00 0.000000000000000000e+00 0.000000000000000000e+00 1.180300000000000082e+01
1.177100000000000080e+01 0.000000000000000000e+00 0.000000000000000000e+00 0.000000000000000000e+00 1.177100000000000080e+01 0.000000000000000000e+00 0.000000000000000000e+00 0.000000000000000000e+00 1.177100000000000080e+01
1.142900000000000027e+01 0.000000000000000000e+00 0.000000000000000000e+00 0.000000000000000000e+00 1.142900000000000027e+01 0.000000000000000000e+00 0.000000000000000000e+00 0.000000000000000000e+00 1.142900000000000027e+01
1.145299999999999940e+01 0.000000000000000000e+00 0.000000000000000000e+00 0.000000000000000000e+00 1.145299999999999940e+01 0.000000000000000000e+00 0.000000000000000000e+00 0.000000000000000000e+00 1.145299999999999940e+01
