4.818391000000000091e+00 8.126241000000000270e+00 1.762850999999999946e+00 1.023104099999999939e+01 9.809841000000000477e+00 1.035804100000000005e+01 5.267081000000000124e+00 1.036244100000000046e+01 2.804590999999999834e+00 5.833770999999999596e+00 1.121434099999999923e+01 6.113630999999999815e+00 7.500900999999999819e+00 3.361781000000000130e+00 5.312401000000000373e+00 5.028241000000000405e+00 4.734111000000000402e+00 3.215580999999999801e+00 1.028664099999999948e+01 6.538151000000000046e+00 7.360591000000000328e+00 5.552241000000000426e+00 3.464510000000000089e-01 9.848541000000000878e+00 1.064104099999999953e+01 1.148860999999999910e+00 4.057910999999999824e+00 1.909931000000000045e+00 8.998440999999999690e+00 3.118071000000000037e+00 3.085100999999999871e+00 4.834020999999999901e+00 1.443230999999999931e+00 9.445740999999999943e+00 2.051910000000000123e-01 6.116601000000000177e+00 8.082440999999999320e+00 7.925341000000000413e+00 4.219770999999999717e+00 5.543561000000000405e+00 8.902941000000000216e+00 9.233541000000000665e+00 7.603520999999999752e+00 3.298820999999999781e+00 1.029344099999999962e+01 2.420481000000000105e+00 3.706450999999999940e+00 5.224291000000000018e+00 3.704680999999999891e+00 1.488941000000000070e+00 1.145134099999999933e+01 6.788440999999999725e+00 5.540200999999999709e+00 4.495950999999999809e+00 1.135304099999999927e+01 6.687831000000000081e+00 9.433640999999999721e+00 8.919240999999999531e+00 6.497850999999999821e+00 5.372561000000000142e+00 3.950960999999999945e+00 4.347370999999999874e+00 6.987810999999999773e+00 1.829820999999999920e+00 7.812641000000000169e+00 8.615140999999999494e+00 7.637099999999999445e-02 4.701920999999999573e+00 8.599740999999999858e+00 5.030941000000000329e+00 8.682309999999999750e-01 4.357171000000000127e+00 5.741209999999999924e-01 5.732410999999999923e+00 1.098854099999999967e+01 7.878241000000000049e+00 8.764340999999999937e+00 7.699100999999999750e+00 2.098309999999999897e-01 8.322440999999999534e+00 1.112164100000000033e+01 1.455591000000000079e+00 1.690890999999999922e+00 6.318101000000000411e+00 5.600581000000000031e+00 7.140501000000000431e+00 3.236311000000000160e+00 2.406210999999999878e+00 1.471991000000000049e+00 2.163431000000000104e+00 8.028641000000000361e+00 4.091001000000000332e+00 8.074941000000000813e+00 3.031270999999999827e+00 5.911470999999999698e+00 1.099414100000000083e+01 3.928881000000000068e+00 6.535410999999999859e+00 7.659500999999999671e+00 3.633661000000000030e+00 1.018314100000000089e+01 5.840330999999999939e+00 8.885709999999999997e-01 1.146174099999999996e+01 7.858041000000000054e+00 2.031630999999999965e+00 3.829060999999999826e+00 8.531240999999999630e+00 6.631801000000000279e+00 1.002154099999999914e+01 1.094784100000000038e+01 1.084984099999999962e+01 3.779421000000000141e+00 2.969641000000000197e+00 6.669709999999999805e-01 7.259171000000000262e+00 5.726290999999999798e+00 8.069041000000000352e+00 1.140944099999999928e+01 7.788509999999999600e-01 6.145991000000000426e+00 1.956650999999999918e+00 6.271301000000000236e+00 9.526141000000000858e+00 2.525061000000000000e+00 5.617240999999999929e+00 6.760820999999999970e+00 9.867741000000000540e+00 4.451240999999999559e+00 5.849340999999999902e+00 6.317851000000000106e+00 8.971140999999999366e+00 4.170771000000000228e+00 2.810890999999999806e+00 4.090030999999999750e+00 1.081604100000000024e+01 7.335091000000000250e+00 1.418020999999999976e+00 2.165920999999999985e+00 1.082304099999999991e+01 1.380590999999999902e+00 1.092084099999999935e+01 3.795310000000000072e-01 1.148444100000000034e+01 1.020104100000000003e+01 9.698040999999999912e+00 6.965410999999999575e+00 8.206841000000000719e+00 1.377941000000000082e+00 3.767330999999999985e+00 1.081624099999999977e+01 1.771851000000000065e+00 7.362911000000000428e+00 9.134840999999999767e+00 9.039040999999999215e+00 5.471541000000000210e+00 2.617170999999999914e+00 5.983050999999999675e+00 5.612171000000000021e+00 4.888531000000000404e+00 1.514401000000000108e+00 1.963810999999999973e+00 1.298561000000000076e+00 1.129254099999999994e+01 5.376521000000000328e+00 1.080074100000000037e+01 4.068610999999999756e+00 6.790910000000000002e-01 4.675730999999999860e+00 1.121484099999999984e+01 6.386410000000000142e-01 3.008881000000000139e+00 8.832741000000000398e+00 7.384230999999999767e+00 7.336720999999999826e+00 1.744920999999999944e+00 1.602660999999999891e+00 4.935910999999999937e+00 2.216991000000000156e+00 8.565141000000000560e+00 7.256250999999999785e+00 1.838230999999999948e+00 8.327341000000000548e+00 9.509240999999999389e+00 5.830790999999999613e+00 1.146334099999999978e+01 3.752081000000000000e+00 1.959391000000000105e+00 6.326831000000000316e+00 4.750100000000000156e-02 2.886909999999999754e-01 2.175040999999999780e+00 1.610709999999999920e-01 3.440221000000000195e+00 5.092671000000000170e+00 6.552190999999999654e+00 5.237290999999999919e+00 1.114674100000000045e+01 2.684630999999999990e+00 7.943440999999999974e+00 1.077904099999999943e+01 6.261690999999999896e+00 5.047120999999999746e+00 6.779220999999999719e+00 2.576210999999999807e+00 1.615420999999999996e+00 8.329240999999999673e+00 3.059161000000000019e+00 9.682340999999999198e+00 9.494441000000000130e+00 9.999940999999999747e+00 2.712940999999999825e+00 9.255141000000000062e+00 7.580961000000000283e+00 1.102374099999999935e+01 7.427181000000000033e+00 8.828640999999999295e+00 4.791361000000000203e+00 3.630460999999999938e+00 7.315009999999999568e-01 3.078441000000000205e+00 1.038714099999999974e+01 1.745071000000000039e+00 3.463811000000000195e+00 3.016601000000000088e+00 9.226240999999999914e+00 8.718740999999999630e+00 2.623050999999999799e+00 8.006840999999999653e+00 6.349141000000000368e+00 7.923640999999999934e+00 3.364621000000000084e+00 7.426561000000000412e+00 3.793121000000000187e+00 3.345100000000000157e-02 7.538390999999999842e+00 3.218570999999999849e+00 4.576140999999999792e+00 1.069894099999999959e+01 7.918340999999999852e+00 8.421741000000000810e+00 8.883240999999999943e+00 1.702710000000000057e-01 9.087141000000000801e+00 1.726031000000000093e+00 1.123104099999999939e+01 1.012914100000000062e+01 3.932120999999999977e+00 7.140750999999999848e+00 7.540850999999999971e+00 5.179941000000000351e+00 1.758880999999999917e+00 3.083901000000000003e+00 3.679511000000000198e+00 1.097554099999999977e+01 7.974909999999999499e-01 5.437781000000000198e+00 2.005291000000000157e+00 1.062974099999999922e+01 9.874840999999999980e+00 1.180031000000000052e+00 9.918741000000000696e+00 1.874430999999999958e+00 1.799061000000000021e+00 1.302761000000000058e+00 1.310621000000000036e+00 8.160100000000000686e-02 2.159790999999999794e+00 8.722740999999999190e+00 9.090510000000000534e-01 9.120841000000000420e+00 7.553710999999999842e+00 9.643340999999999497e+00 3.042530999999999874e+00 1.119884099999999982e+01 3.709541000000000199e+00 4.673021000000000313e+00 8.979241000000000028e+00 1.134374099999999963e+01 7.219910000000000494e-01 9.333840999999999610e+00 6.865831000000000017e+00 5.492640999999999885e+00 3.151660999999999824e+00 1.068054099999999984e+01 8.143741000000000341e+00 1.152144099999999938e+01 9.746240999999999488e+00 1.884611000000000036e+00 9.020999999999999505e-03 1.013383999999999929e+01 5.793390999999999735e+00 3.772301000000000126e+00 1.330630999999999897e+00 8.666940999999999562e+00 1.089814100000000074e+01 3.030231000000000119e+00 6.513010999999999662e+00 7.354740999999999751e+00 7.749110000000000165e-01 4.264591000000000243e+00 4.621431000000000289e+00 9.245540999999999343e+00 5.036101000000000383e+00 6.895481000000000193e+00 5.309230999999999590e+00 8.709100000000000175e-02 9.430540999999999840e+00 4.620830999999999911e+00 1.110584099999999985e+01 5.589591000000000420e+00 4.377680999999999933e+00 1.038004100000000030e+01 1.150244099999999925e+01 8.664241000000000525e+00 5.786131000000000135e+00 8.160441000000000500e+00 7.325261000000000244e+00 5.544520999999999589e+00 4.339551000000000158e+00 1.156497300000000017e+01 1.149654100000000057e+01 4.778160999999999881e+00 5.340321000000000318e+00 4.977151000000000103e+00 2.036251000000000033e+00 7.107130999999999865e+00 8.873941000000000301e+00 6.411870999999999654e+00 6.795001000000000069e+00 1.037154100000000057e+01 1.061504099999999973e+01 2.569099999999999856e-02 9.904840999999999340e+00 6.509700999999999738e+00 9.144309999999999938e-01 2.290721000000000007e+00 1.036874099999999999e+01 2.803551000000000126e+00 6.203020999999999674e+00 2.923550999999999789e+00 5.300251000000000268e+00 8.925340999999999525e+00 1.131114099999999922e+01 1.776580999999999966e+00 1.986801000000000039e+00 3.656909999999999883e-01 8.660740999999999801e+00 4.160771000000000441e+00 2.701941000000000148e+00 1.103244100000000039e+01 3.220340999999999898e+00 1.002024100000000040e+01 8.085741000000000511e+00 5.648160999999999987e+00 7.660230999999999568e+00 8.675140999999999991e+00 9.362840999999999525e+00 7.789090999999999987e+00 4.868781000000000247e+00 3.234121000000000024e+00 5.989601000000000397e+00 8.416209999999999525e-01 9.786041000000000878e+00 4.471521000000000079e+00 1.157570300000000074e+01 5.842509999999999648e-01 6.819550999999999696e+00 1.962830999999999992e+00 4.620030999999999999e+00 1.131424100000000088e+01 9.067441000000000528e+00 1.124274100000000054e+01 5.129671000000000092e+00 2.918581000000000092e+00 3.372120999999999924e+00 4.051010999999999918e+00 8.292941000000000784e+00 1.041164099999999948e+01 1.438420999999999950e+00 1.088744100000000081e+01 5.552721000000000018e+00 7.801040999999999670e+00 4.439060999999999702e+00 5.233511000000000024e+00 7.744820999999999955e+00 3.509510000000000129e-01 6.032651000000000430e+00 5.740270999999999901e+00 3.287961000000000134e+00 5.992460999999999594e+00 1.481321000000000110e+00 9.088440999999999548e+00 4.781540999999999819e+00 5.720809999999999507e-01 1.109724100000000035e+01 5.027209999999999734e-01 3.345120999999999789e+00 3.633580999999999950e+00 4.656441000000000052e+00 4.108260999999999719e+00 4.264010999999999996e+00 2.231330999999999953e+00 8.147240999999999289e+00 2.125191000000000052e+00 7.660010999999999903e+00 7.859841000000000300e+00 3.933309999999999862e-01 1.128554100000000027e+01 1.052144099999999938e+01 2.241041000000000061e+00 8.732640999999999210e+00 2.183870999999999896e+00 1.014890999999999988e+00 8.952341000000000548e+00 6.424090999999999774e+00 1.040794099999999922e+01 1.033364100000000008e+01 9.702241000000000781e+00 5.458821000000000367e+00 1.321900999999999993e+00 3.081160999999999817e+00 5.852101000000000219e+00 1.256030999999999898e+00 4.759580999999999840e+00 7.994240999999999708e+00 7.279760999999999704e+00 2.003690999999999889e+00 2.960621000000000169e+00 7.579321000000000197e+00 4.424551000000000123e+00 4.341001000000000332e+00 7.249330999999999747e+00 1.960220999999999991e+00 7.019980999999999582e+00 8.132441000000000031e+00 7.667540999999999940e+00 8.643340999999999497e+00 2.810681000000000207e+00 9.070209999999999662e-01 3.291170999999999847e+00 5.464901000000000231e+00 9.496741000000000099e+00 7.917140999999999984e+00 2.186180999999999930e+00 4.953390999999999877e+00 4.877280999999999977e+00 4.840981000000000201e+00 7.325810999999999851e+00 6.687681000000000431e+00 1.002904099999999943e+01 1.108214100000000002e+01 7.293720999999999677e+00 7.726830999999999783e+00 1.009834099999999957e+01 1.520009999999999972e-01 6.167030999999999707e+00 6.176900999999999975e+00 1.026134099999999982e+01 7.005590999999999902e+00 5.845110000000000028e-01 1.073820999999999914e+00 6.692270999999999859e+00 2.476871000000000045e+00 1.093064099999999961e+01 1.614640999999999993e+00 8.685840999999999923e+00 7.609511000000000358e+00 4.528840999999999894e+00 1.109194100000000027e+01 3.873501000000000083e+00 1.019384100000000082e+01 2.806810000000000138e-01 4.951901000000000330e+00 3.561390999999999973e+00 7.005520999999999887e+00 1.042164099999999927e+01 9.168741000000000696e+00 8.762641000000000346e+00 1.049344100000000068e+01 6.598850999999999800e+00 6.107311000000000156e+00 7.734600999999999615e+00 4.530580999999999747e+00 4.329660999999999760e+00 2.009141000000000066e+00 2.630260999999999960e+00 1.060264100000000020e+01 1.035304099999999927e+01 1.119384100000000082e+01 9.093140999999999252e+00 7.593861000000000416e+00 3.434420999999999946e+00 5.586370999999999754e+00 6.730881000000000114e+00 1.121674100000000074e+01 5.358710999999999558e+00 9.820740999999999943e+00 3.755720999999999865e+00 6.551200999999999830e+00 4.802781000000000411e+00 3.608150999999999886e+00 8.938940999999999804e+00 6.171420999999999601e+00 1.027604099999999931e+01 7.636491000000000362e+00 2.776031000000000137e+00 7.874640999999999558e+00 1.002424099999999996e+01 8.300240999999999758e+00 9.042840999999999241e+00 8.849240999999999246e+00 6.904351000000000127e+00 8.418841000000000463e+00 5.360209999999999697e-01 1.103824099999999930e+01 9.517841000000000662e+00 1.502261000000000069e+00 6.749621000000000315e+00 2.021380999999999872e+00 4.883360999999999841e+00 2.527171000000000056e+00 9.335240999999999900e+00 3.385960999999999999e+00 8.171041000000000665e+00 2.707540999999999976e+00 1.074074099999999987e+01 5.006571000000000105e+00 6.587481000000000364e+00 1.002874100000000013e+01 3.139340999999999937e+00 1.407440999999999942e+00 1.038990999999999998e+00 5.071951000000000320e+00 8.055341000000000307e+00 7.970841000000000065e+00 2.896520999999999901e+00 5.057300999999999824e+00 1.959030999999999967e+00 3.318440999999999974e+00 9.549740999999999147e+00 1.083894100000000016e+01 9.598541000000000878e+00 4.389831000000000039e+00 9.080640999999999963e+00 9.937941000000000358e+00 1.117614099999999944e+01 3.081030999999999853e+00 7.136491000000000362e+00 1.691880999999999968e+00 2.550431000000000115e+00 2.064350999999999825e+00 8.379640999999999451e+00 5.275600999999999985e+00 8.698340999999999212e+00 7.909741000000000355e+00 2.705099999999999866e-02 3.904850999999999850e+00 1.144804099999999991e+01 9.171141000000000432e+00 1.011974099999999943e+01 6.986301000000000094e+00 4.024491000000000263e+00 1.900860999999999912e+00 3.900410000000000266e-01 8.804040999999999784e+00 3.365470999999999879e+00 9.371040999999999954e+00 3.877610999999999919e+00 5.997550999999999632e+00 8.117240999999999929e+00 8.296510000000000273e-01 8.760141000000000844e+00 6.119021000000000043e+00 7.347709999999999519e-01 5.268000999999999934e+00 3.354381000000000057e+00 1.110604099999999939e+01 7.743609999999999660e-01 2.254410000000000025e-01 1.048421000000000047e+00 3.304891000000000023e+00 8.344440999999999775e+00 2.262630999999999837e+00 4.926311000000000107e+00 6.795510000000000161e-01 1.879709999999999992e-01 1.090324099999999952e+01 1.120414099999999991e+01 8.561140999999999224e+00 7.779409999999999936e-01 6.713930999999999649e+00 1.117524099999999976e+01 1.013494099999999953e+01 8.495941000000000187e+00 5.615650999999999726e+00 2.523620999999999892e+00 8.951641000000000403e+00 2.735691000000000095e+00 1.026384099999999933e+01 6.744990999999999737e+00 5.958790999999999727e+00 8.207609999999999628e-01 7.449240999999999779e+00 4.253171000000000035e+00 6.721930999999999656e+00 3.183990999999999794e+00 7.533951000000000064e+00 8.100740999999999303e+00 4.375681000000000154e+00 1.120804099999999970e+01 6.517750999999999628e+00 1.969980999999999982e+00 3.555130999999999819e+00 1.000694099999999942e+01 1.138374100000000055e+01 6.988790999999999976e+00 1.079874099999999970e+01 7.003301000000000442e+00 8.236340999999999468e+00 6.752391000000000254e+00 5.279909999999999881e-01 1.066794100000000078e+01 4.492500999999999856e+00 1.027724100000000007e+01 7.264801000000000286e+00 8.673140999999999323e+00 6.324951000000000434e+00 1.148224100000000014e+01 7.402611000000000274e+00 7.765551000000000315e+00 9.079440999999999207e+00 4.903630999999999851e+00 1.051754099999999958e+01 1.485351000000000088e+00 8.667441000000000173e+00 7.654260999999999981e+00 6.633721000000000423e+00 4.807341000000000086e+00 6.136331000000000202e+00 7.783650999999999875e+00 2.182640999999999831e+00 3.433610999999999969e+00 3.414200999999999819e+00 6.127931000000000239e+00 5.861120999999999803e+00 9.988941000000000514e+00 5.481850999999999807e+00 4.067410000000000192e-01 1.020710999999999924e+00 7.079581000000000124e+00 2.910099999999999840e-02 1.100514100000000006e+01 8.894541000000000253e+00 9.322741000000000611e+00 9.145640999999999465e+00 1.260081000000000007e+00 1.637340999999999935e+00 2.550761000000000056e+00 8.166541000000000494e+00 5.220290999999999570e+00 4.944099999999999884e-02 1.870910999999999991e+00 4.156971000000000416e+00 7.051091000000000442e+00 2.693941000000000141e+00 6.584960999999999842e+00 8.966841000000000506e+00 1.007664100000000040e+01 4.565951000000000093e+00 5.820001000000000424e+00 8.643641000000000574e+00 3.660940999999999779e+00 1.661391000000000062e+00 1.288051000000000057e+00 1.735681000000000029e+00 5.654310999999999865e+00 1.044114100000000001e+01 9.349840999999999624e+00 9.842140999999999806e+00 3.423700999999999883e+00 1.410730999999999957e+00 9.902841000000000449e+00 7.560210000000000541e-01 3.379811000000000121e+00 8.843940999999999164e+00 1.354309999999999958e-01 1.081634099999999954e+01 3.111851000000000145e+00 1.664420999999999928e+00 9.584540999999999755e+00 1.477530999999999928e+00 3.111371000000000109e+00 1.064384100000000011e+01 5.154681000000000068e+00 7.702401000000000053e+00 1.797550999999999899e+00 6.799180999999999919e+00 6.207830999999999655e+00 8.159240999999999744e+00 1.116204100000000032e+01 6.209540999999999755e+00 2.748501000000000083e+00 1.218601000000000045e+00 6.874260999999999733e+00 4.106301000000000201e+00 1.696900999999999993e+00 5.050760999999999612e+00 5.828711000000000197e+00 2.353420999999999985e+00 1.364781000000000022e+00 9.502410000000000023e-01 6.872751000000000055e+00 8.737341000000000690e+00 2.640010999999999886e+00 3.859261000000000053e+00 6.385809999999999542e-01 3.674310999999999883e+00 1.928180999999999923e+00 8.985041000000000722e+00 5.454100999999999644e+00 1.002284099999999967e+01 2.328709999999999947e-01 4.466711000000000098e+00 9.344841000000000619e+00 2.342440999999999995e+00 1.472790999999999961e+00 5.721610000000000307e-01 1.361170999999999909e+00 1.562891000000000030e+00 7.799860999999999933e+00 1.155954099999999940e+01 4.169809999999999905e-01 5.004700999999999844e+00 6.266610000000000236e-01 1.071924100000000024e+01 2.404510999999999843e+00 4.954201000000000299e+00 7.722671000000000063e+00 4.525000999999999607e+00 1.087394100000000030e+01 2.625321000000000016e+00 8.424341000000000079e+00 4.258211000000000190e+00 5.865270999999999901e+00 5.670331000000000010e+00 5.525731000000000392e+00 9.586240999999999346e+00 3.667270999999999948e+00 3.401130999999999904e+00 2.742100999999999900e+00 3.095010999999999957e+00 3.953301000000000176e+00 1.082644100000000087e+01 9.596409999999999663e-01 1.228361000000000036e+00 2.472380999999999940e+00 1.276510999999999951e+00 1.085754099999999944e+01 3.715120999999999896e+00 4.809261000000000230e+00 1.048184099999999930e+01 9.652941000000000216e+00 5.724630999999999581e+00 4.513461000000000389e+00 2.140531000000000184e+00 8.643940999999999875e+00 9.673541000000000167e+00 6.471209999999999463e-01 2.487970999999999933e+00 1.156174099999999960e+01 1.174581000000000097e+00 1.065184099999999923e+01 6.756591000000000236e+00 5.251641000000000226e+00 4.273971000000000409e+00 7.123921000000000170e+00 1.128694100000000056e+01 3.331071000000000115e+00 9.488740999999999204e+00 7.900909999999999878e-01 8.695140999999999565e+00 5.597241000000000355e+00 7.341501000000000055e+00 3.211270999999999987e+00 8.856341000000000463e+00 5.283090999999999759e+00 3.609761000000000220e+00 9.300940999999999903e+00 4.073410000000000086e-01 6.728341000000000349e+00 4.307580999999999882e+00 1.103214099999999931e+01 7.002150999999999570e+00 6.376401000000000430e+00