-7.777027287254491239e+04
-7.772957301179144997e+04
-7.780555768599668227e+04
-7.773035960316837009e+04
-7.779837742511225224e+04
-7.773143360529733764e+04
-7.778301429993817874e+04
-7.772799648295408406e+04
-7.777739643575850641e+04
-7.778411844725860283e+04
-7.774218948547187028e+04
-7.773410705713706557e+04
-7.772995209132075252e+04
-7.773249032360548154e+04
-7.773236244591489958e+04
-7.773217632449379016e+04
-7.773104204762409790e+04
-7.773497873489340418e+04
-7.780062161965607083e+04
-7.778155473109247396e+04
-7.773330275894797524e+04
-7.774073801909397298e+04
-7.772994511670005159e+04
-7.772710822881804779e+04
-7.773488286558879190e+04
-7.773080781351668702e+04
-7.777186759887610970e+04
-7.773125075018676580e+04
-7.773624425789783709e+04
-7.777128741196717601e+04
-7.773679418669058941e+04
-7.775550202736273059e+04
-7.773199460226381780e+04
-7.775339421513977868e+04
-7.779001864041389490e+04
-7.773389362911890203e+04
-7.775716701569006545e+04
-7.780961732700500579e+04
-7.773635356542117370e+04
-7.773636827521692612e+04
-7.773047222787099599e+04
-7.779213896660767205e+04
-7.773625056815615972e+04
-7.773748530341430160e+04
-7.773330410130014934e+04
-7.772898587786970893e+04
-7.773161441686860053e+04
-7.772630509115640598e+04
-7.772729247344640316e+04
-7.773114781136038073e+04
-7.775299516181342187e+04
-7.774673811432906950e+04
-7.772870008684428467e+04
-7.777798725549675873e+04
-7.780694287800174789e+04
-7.773470730310249201e+04
-7.773491713477281155e+04
-7.778487176002822525e+04
-7.775533757236413658e+04
-7.779070713334745960e+04
-7.773049187723420619e+04
-7.773205933647943311e+04
-7.774221460076737276e+04
-7.779072882860095706e+04
-7.776786982848281332e+04
-7.773418035620049341e+04
-7.773239020193864417e+04
-7.773495698093611281e+04
-7.780396877612748358e+04
-7.779881427561629971e+04
-7.773934570537575928e+04
-7.774391257014211442e+04
