-4.996445755164201086e-01 4.118151700461806786e-01 1.128302490344869291e+00 -1.276192870627457510e-01 -5.509221469831376838e-01 -1.099635201947492397e-01 2.458504472663387008e-01 1.615938470443543329e+00 -4.997597609475671332e-01 -2.799283656035746470e-01 -5.967865174066223632e-01 7.593265304925409520e-01 -1.726229034987441846e+00 2.543931953361807108e-01 7.766177149021303849e-01 -7.944010084974681973e-01 3.413242572876087899e-02 -8.816580863566962911e-01 4.584740114121745730e-02 -6.938595537264062862e-01 4.035269612103464798e-01 -1.410635866044311904e-01 6.269944109455899417e-02 -9.137634541855402803e-01 1.975566926870024886e+00 1.306465041750770828e+00 9.959066074342476371e-02 8.552240583498160742e-01 -6.731560009190878935e-02 9.548620273953191129e-01 -4.045790567109120994e-01 -6.756869950802725233e-01 -2.225135703835576587e-02 -3.091504981090211768e-01 3.247442400712170496e-01 6.024948811171692009e-01 -5.793657493869925901e-01 -1.906937492954095648e+00 -1.887304547591634796e+00 9.157432037833788119e-01 -4.837171043363030359e-02 -2.766388959471141051e-01 1.067433674852467540e+00 6.432453269301333654e-01 -1.469817523502815471e-01 -9.925297202630772864e-01 -2.804518422504836406e-01 -2.578456729465412184e-02 1.854076636029782454e+00 -1.115734422832980632e+00 -4.430977847954036264e-01 6.900692331327261675e-01 1.390380199444712250e+00 6.898054379265726732e-01 3.356585738930671914e-01 2.657518672430938089e+00 -1.752457888945091469e+00 1.107390163943597017e+00 1.404353632060729051e+00 1.029744898937043907e+00 -4.832635617011618034e-01 -5.125211754331669978e-01 8.191262812021100626e-01 -1.328863465902108576e+00 -2.260550081706522274e+00 4.417515550688733139e-01 -1.841698315946881159e+00 -1.371020305260550187e-01 2.515973775274928936e-01 2.987524418446333430e-01 -2.354863295664851863e-01 -7.195479617548795614e-01 -9.620328347048927586e-01 2.532248859631185955e-01 -1.427971273431930754e+00 1.373360009330723219e+00 1.573607824497031682e-01 -1.394828722502089169e-01 1.196928838936749839e+00 -9.695985634926845842e-01 -1.917559749432680705e-01 -7.545514773066894776e-01 -5.205867267168287071e-01 -2.827666580399979424e+00 -1.005827466912455392e+00 -7.542979665140310264e-01 5.029026777117201474e-02 3.857421249529844332e-01 -1.296891795448703144e+00 -4.191073334349985080e-01 2.184535924680317986e+00 1.016579307001080235e+00 6.575442612332751957e-02 -8.497707480939517000e-01 6.650930207387998339e-01 1.072331112558912780e+00 7.484852160065071924e-01 1.979245661577281323e-01 -3.327219624636291950e+00 6.995283224449962978e-01 2.602659553964494776e+00 -1.332805995815518507e+00 -1.352797352988289736e+00 1.423341230476362407e+00 2.655029844365084379e+00 -1.044968402013410208e-01 -2.022690623726004944e+00 -1.363857211261098046e-01 -1.252119115517740688e+00 1.699494187885824958e-01 -2.138818621369816153e+00 7.799904883079026296e-01 -1.847533177943420091e-01 -3.417088943523317046e-01 -2.671166603359830027e+00 -1.713840944711719771e-01 8.077069826776422934e-02 -1.660962090063789809e+00 -1.136715654804670850e-01 -2.271376998013662885e+00 7.213868148878329611e-01 6.725739031152557779e-01 -1.241482975080937523e+00 -3.569041152915860549e-01 7.731086730175459332e-01 1.982077989053877332e+00 -1.039323287445859334e+00 2.730758608916794561e-01 1.237881887695570393e+00 7.630026940964236282e-01 1.488035333568328067e+00 8.909855351762269171e-01 -9.811119644006339735e-01 -1.826187877733997100e-01 -7.797169229089285780e-01 -1.115583756175274832e+00 -2.594819231336379373e-01 1.253816557965134360e+00 1.120518731990977734e+00 -5.256199186814114466e-01 -4.217781956197187987e-01 2.147565515047538676e-01 -1.079592422707244870e+00 -6.804512496319541359e-01 3.715748311425818295e-01 -1.235996240481213454e-01 4.413628042387523487e-01 -1.196094258781609021e+00 1.524785656752308594e+00 -1.533595285352352899e+00 4.667982156952422135e-01 1.040859264601377010e+00 -9.138292744319099770e-01 -6.357017096313563043e-01 -1.080647603531858847e+00 1.016580849663104580e+00 9.959755130046658023e-01 -1.297718148073047750e+00 4.672198766485481380e-01 1.178921345127215137e+00 -7.817182697751071663e-01 2.694809441544094852e-01 1.859062005471612267e-01 -8.084423182425537480e-02 -1.297261520113857758e+00 1.100902755910783792e+00 9.118243280210079904e-01 3.550626910552587834e-01 1.873357340230030754e-01 -6.693970477865683888e-01 -4.784658828056204682e-01 -6.950926549044883496e-02 -1.217685356473568792e+00 -9.026249201494933594e-01 -1.667008810978330979e+00 1.364546266965280807e+00 1.753736755763227739e+00 -1.169330101101530683e+00 4.644924501896037228e-01 -1.901773174717448500e-01 -3.500356697387732030e-01 -7.812194757205868922e-02 2.715806614356703008e+00 -1.033969221780224101e+00 5.610378960970805462e-01 -2.742559973402611373e+00 1.536811221452322407e+00 1.772589114141398303e+00 1.638987383748456761e+00 -1.874848580186844454e-03 -4.760217919384708840e-01 2.473311971213869587e+00 -1.465343803632375153e-01 -1.343674049776640289e-01 -5.159844516776975754e-01 1.911857556370230693e+00 -2.327851283619537803e-01 -5.812981906827530132e-01 1.038512361441757514e+00 4.240057995827933163e-02 -8.524035579487395653e-01 7.232282391241602326e-01 -2.702517609458796599e-01 7.928820006242175422e-01 -4.574944210267505862e-01 -1.524303831980055479e+00 -1.023905408954432161e+00 1.130556833783031623e+00 1.165751125205178429e+00 -1.192863410282071490e-01 -1.557443811806523248e+00 -3.642343310103363097e-01 -2.054445293054660004e-01 7.031972869594321773e-01 -1.346455983627109221e-01 -4.969942821586903307e-03 1.479660221438458878e+00 1.714637986757603094e-01 -3.868111897358172402e-01 1.881785417089400780e-01 -1.462829264532782558e-01 -1.602946685095649526e+00 4.761189796460010282e-01 -1.792403579402050973e-01 1.225135899830213648e-01 -1.588209634777609347e+00 -1.495943533325512220e+00 -6.044874862318769804e-01 -5.640728265195332769e-01 -4.942560570655759600e-01 1.934494064693984550e+00 1.819312747312412269e-03 7.411801971008203926e-01 1.006129314448541284e-01 -1.012469655368372357e-01 -2.392229655217198658e+00 -4.921508376230952497e-01 4.872523714753003166e-01 -1.750835008495538636e+00 -8.282295298074439094e-01 1.296072127693130183e+00 -1.263234509623423207e-02 7.710039677957398752e-01 1.102499411105923643e+00 2.700033923599690078e-01 -9.680245340072343163e-01 7.212819138701812016e-02 6.525707188669650494e-01 -1.779980007899770733e-01 -3.810678590193863347e-01 2.384742087971971181e+00 -1.066009283583373213e+00 -2.211740255257993726e-01 -1.279087933026374635e-01 6.401060097107036384e-01 -6.535724207414037590e-01 1.185131588216330911e+00 8.380028079519945550e-01 3.642739260022930803e-01 -4.290976127042991362e-01 9.188922911956290962e-01 -1.368477484023845836e+00 1.139404514713008076e+00 -1.036036388892772470e-01 1.862291311309125508e-01 -1.865384348667826542e+00 -6.333872023742468382e-01 -1.679120764751705019e+00 8.596365859599596204e-01 1.411042100377374875e-01 1.821328492357484341e-01 -1.241680950040721543e+00 3.372084350068036973e-01 -3.311303466311019128e-01 8.129587184289993607e-01 -1.365424041657101739e+00 -6.426935681461122540e-02 -1.629388426412651025e+00 -1.388347485117372937e+00 -1.292441729729301825e+00 -1.262195269639726947e+00 9.124979571049478544e-01 5.873022312812887780e-01 7.654611831424666946e-01 8.842554149849254364e-01 1.226231189867459243e-01 1.510888328796156921e-01 2.318513036165837260e+00 -9.003057849063109686e-01 2.681010843957497780e+00 -2.381128659290409733e+00 -1.764564700511717543e+00 -1.199296825144034573e+00 -1.687868686870777291e+00 -3.123268392170338026e-01 8.251133525183784734e-01 2.230432176785638321e-01 2.036696452244531663e+00 3.832126734538239543e-02 1.211868492200646630e+00 -5.715022868285127844e-01 -1.787198123511422265e+00 -1.166375903325015617e+00 -2.120682058170915429e-01 -1.545166278975875773e-01 3.597741351436421819e+00 -9.773483832820415440e-01 1.686431954305488645e+00 1.198389739873752191e+00 -1.548786392526209088e-01 9.767621717128116207e-03 -2.105394277510204137e-01 5.730835154034098766e-02 3.826202912364966013e-01 -3.604856622913121811e-01 -3.006699707408255068e-02 4.628243183206717237e-01 -1.901495495553076620e-01 -3.850648963243211154e-01 -1.676570744425553761e+00 9.240848915693884447e-01 2.911918552635890944e-01 -1.800555519759072798e+00 9.089709174967466332e-01 -1.458499012230601188e+00 -1.141883058365367187e+00 3.471349509124336263e-01 1.591588578831478307e+00 -1.658803905891808317e-01 -9.564067463023078197e-01 4.164395565743266858e-01 5.173368520523248248e-01 -1.098475634325901229e+00 2.486390659855798602e-01 6.023395864733908089e-01 1.215811536334731269e+00 6.378444671830947599e-02 -3.510635968676249080e-02 4.361264951076381235e-01 2.351109484739080380e-01 7.359063498604483389e-01 -2.211349447545173652e-01 7.381144134378818666e-01 -4.507488742152060968e-01 3.560247979377408334e-01 -6.516682615827554814e-01 -7.872970498756136637e-01 2.797765676603845453e+00 7.367285887193948390e-01 1.114649417209230053e+00 -1.031593008042143156e+00 6.058712540676648439e-01 -7.099382057849037975e-02 1.920315972249411862e+00 -1.603545752181748663e-01 -2.106576985062159624e-01 -3.945563815391014278e-02 1.605922994361179024e+00 -1.880659273811668974e-02 3.792932834707783418e-01 -7.427969069022760662e-02 2.061156387080995689e+00 -9.577792012832511137e-01 4.614909441110106036e-01 -8.012637976228585979e-01 4.918849855342425914e-01 -1.293232601127087600e+00 1.044239237096596051e+00 -1.136839067766614170e-01 -5.590452909823728778e-01 6.875007008622836535e-01 8.166909320864312871e-01 -8.130800745082434888e-01 5.801663909775989225e-01 -1.518557415939576050e+00 5.966980714505629724e-01 5.504094689703986631e-01 2.659693311664512172e-01 -1.670602185053576827e+00 3.666023172176210987e-01 -1.528080268615516824e+00 1.249043047441306786e+00 5.809860587331716619e-01 -2.864512548629465916e-01 -2.416910190723136509e+00 8.104220678403921685e-01 -1.307874006399621925e-01 -6.980694783906929990e-01 3.682349678599943776e-01 2.152887699031338573e-02 -1.004649901567247428e+00 -1.717702741979192094e-02 -6.061545896594593419e-01 1.027974437153833964e+00 6.196066025112663134e-01 7.170586194683505887e-01 -1.030151647490781697e+00 -4.112083896499600377e-01 1.888196720462349099e+00 7.811526270328675858e-01 3.479793012603948910e-01 6.011779619691005605e-01 9.929827486775438805e-01 6.087431765362175673e-01 -5.778261726867514048e-01 -2.570563442107796637e-01 -9.901833313241324985e-01 -2.278990035103532763e-01 -9.615998608967420980e-01 1.158683162030557323e+00 -2.126941666444808643e+00 6.601199925931643397e-01 5.357037861135189871e-01 1.015128176256898107e-01 3.313288358115605292e-01 5.728222913006301154e-01 1.409478869526094247e+00 7.645741524785000520e-02 -3.429548510472830714e-01 -2.545094092086772064e-01 -1.674456783231602075e-01 -5.525290865917728000e-01 7.334020951743512595e-02 -5.855585089731665110e-02 6.469466873470792745e-01 -3.554498992233554727e-02 2.132566726406044388e+00 -3.627616029978143475e-01 1.960209212197545556e-02 1.023412785548009296e+00 -6.644543586607439822e-01 -2.562500461927508244e-01 4.956100001022276658e-01 -3.731899982820132133e-01 -7.502896163542515096e-01 -1.746209079305368173e+00 -8.512733009056099309e-01 1.376044241252987188e-01 5.786288711600569012e-01 -1.404126346522483582e+00 4.429522603444456252e-01 -1.434822749702476585e+00 7.251030877043471712e-01 -2.602661096626519011e-01 -1.030549654293048262e-02 1.832744191337228434e+00 -1.817975773558027919e-01 9.764680374868469626e-01 -1.236913095944316421e+00 -8.768382959721401360e-01 9.739612116973761502e-01 -7.369430187407710608e-01 3.198303473031793298e-01 7.716184615020819093e-01 1.064892910498462353e+00 1.693151275862620375e+00 1.041903646791821070e-01 2.076315098352342070e-01 -1.180716489502813715e+00 4.672311895033928186e-01 -1.576863355588957738e+00 -9.203310806436167946e-01 -5.019765662764716918e-01 -4.708950118110810656e-01 -5.894871549283577927e-01 2.469920171643131379e+00 9.694432688489059702e-01 -1.754331194863253840e+00 5.747516472723419589e-01 1.054703627828028401e+00 8.571482721147801742e-01 -1.726931974649843049e+00 -2.112325457985337884e+00 1.192215492231869733e+00 3.723369061825809734e-02 -2.054758967666266145e-01 -9.645386320530140445e-01 1.435824965797589892e+00 4.876879163868248490e-01 -4.457938437931873166e-01 6.321870113193494012e-01 -2.149113319278576295e+00 -1.156933269074338133e+00 5.754077928533397612e-01 3.123489507060486225e-01 9.191170056305005831e-01 1.638569836560548998e+00 -1.970330103518235676e+00 -1.417063624478852590e-01 -1.339592166060369349e+00 6.388873067115147242e-01 3.738569424971811550e-01 -3.883343113744659458e-01 5.541164858147670236e-01 4.695585522773713660e-01 2.179406059228879977e-01 -2.209528077915162481e+00 -1.250965718544246874e+00 -8.349581073367212669e-01 -3.012006464771811998e-01 -1.028318450785250526e+00 -1.079556427260011331e+00 1.927329942253182549e-01 2.148465401228374580e-02 3.966975964288156353e-01 -4.051693820455403716e-01 -1.108088475619925628e+00 -1.062437506776467755e+00 -3.777454792397409444e-01 5.093335214703095248e-01 1.990636677964636725e+00 6.132374652336484155e-01 -1.366198972213969798e+00 2.727765844589672417e-01 -2.980171062797218884e-01 7.985122027922004762e-01 4.504033179217651894e-01 1.944476116432488855e+00 -2.646403792545930500e+00 5.607010815551104893e-02 3.934898878596423955e-01 -2.183771792757620012e-01 -6.381853954904628257e-01 -1.864080799257301357e-01 4.297182770587383849e-01 1.297738716900038169e-01 1.562408098200687712e-01 6.207332600096724384e-01 -1.790382692150231048e+00 -4.775515984458915675e-01 -8.121220813911597114e-01 2.532521396588809925e-01 -1.328941627444672757e-01 3.478619561024138829e+00 1.783731761942843441e+00 6.713474868059453593e-01 -5.909058897700296686e-01 -1.412831074104876183e+00 -1.640208143630344395e+00 1.288534166821775628e-01 -4.970765574666524689e-01 4.358842971698245750e-02 -1.277063960450506519e+00 -8.789856815099514886e-01 1.553995447961560972e+00 1.712519397577578484e-01 1.037328625448452391e+00 -6.262606180427028324e-01 2.708914514652851352e-02 -6.025067081926889223e-01 1.624406656515544611e+00 -7.946375500078592946e-01 -7.108992842260363210e-01 1.258750505339487902e-01 -1.206867181917899101e+00 1.377358589297682068e+00 1.580107573826039224e-01 3.671463626915206224e-01 -2.948947583425592933e-01 4.407796779935707621e-01 3.897792714705507200e-02 4.556062027090199140e-01 -7.176088355903472715e-01 5.594993478381888874e-01 2.758130061213767803e+00 2.148008259048510116e+00 7.831683720779395452e-01 9.742445472891705371e-01 -8.446758496483972589e-01 -7.770671437718734698e-01 1.313053751256512358e+00 2.769803384751569064e-01 -2.071925710672562815e+00 -1.002976627491567685e+00 -1.560556903771539994e-01 -3.277334048536158506e-01 -4.086203169938765756e-01 -1.580219673933137559e+00 1.178686860499523092e+00 -1.690576058723405994e+00 -1.343557321683468642e+00 -1.878153476463547689e+00 -1.898903823352269815e-01 -8.299897071771585866e-01 -9.885326829581425612e-02 -8.145183497355564795e-01 1.773060140279481445e+00 1.383680932493896343e+00 8.529506887466876686e-01 -3.771361277401464873e-01 1.075502311460177829e+00 -3.843563002344974056e-01 6.277071208008118131e-01 -7.139208449109452070e-01 3.162493145241279113e-01 -4.178042982451483645e-01 9.507734588102763340e-02 8.182845019575225864e-02 -4.334756875292334888e-01 3.302592568080530144e-01 8.150387410584167824e-01 -5.076684749254261053e-01 1.895063623353137494e+00 -5.328292925415923920e-01 9.036456481888983649e-01 -4.126168400781365930e-01 1.116835883518323413e-01 1.606700496021421287e+00 4.539534974603308126e-01 -7.488374571687200776e-01 -9.827867811383378394e-01 1.140232409999376806e+00 -8.891523384706958577e-01 -1.581632238126712275e+00 1.643017845397251042e+00 -4.982942320244919121e-01 2.359273766392296245e+00 1.231347171360678949e+00 -1.461825505775644629e+00 -3.449659681062822170e-01 1.181130437145998080e+00 -1.004602079044494278e-01 -2.284636178112433302e-01 -3.925678901897918793e-01 1.203003841988403017e-01 -1.507463619102233643e-01 1.285428788166880443e+00 -7.780400492885255481e-01 -5.630490131560796918e-01 -1.038937107719112074e+00 7.472675414486678047e-01 1.475438469698652444e+00 1.883569762830828997e-01 -8.999468588753264386e-01 -2.896264646854747937e+00 2.425425685097216011e+00 -1.819363655159214055e+00 2.852752321797630275e-01 -6.416532997210662170e-01 3.834163048410301755e-01 4.076232431055106242e-01 -5.090563565266120749e-01 1.622273669156626408e-01 -1.776411830637588229e+00 3.417736861573518747e-01 9.797091703998797030e-01 3.848638360404887382e-01 -1.284808123812441139e+00 -7.456513458678868389e-01 5.252481371335576688e-01 -5.310665440685039540e-01 2.264215446676234755e+00 9.294497558691935390e-01 -2.556116412250322156e+00 -5.349597087971366127e-01 -5.650549880083310939e-01 2.528351066916480594e+00 -8.101680428270593426e-01 9.800686106515393847e-01 6.607941358977791058e-02 -9.953183389823183624e-01 6.606295852818548642e-02 1.072572282055376691e+00 5.977763922055416845e-01 4.647937835050150457e-01 -5.486945430200631524e-01 1.385391744678833748e+00 1.239055853496054960e-01 2.052188892733799452e+00 8.474603546022403400e-01 1.451896932987315758e-01 1.322826000959713255e+00 -9.474253679968929198e-01 1.057975613981547047e+00 2.003839808009858281e+00 2.484304466578283410e+00 1.132371518544271094e+00 1.890405812481132042e+00 8.391155814921822387e-01 -1.091926519812116414e+00 3.747912814632259892e-01 7.289869964608338693e-01 -5.980479007218165721e-01 -3.668450293761093411e-02 -1.938743584350227867e+00 -8.436664344638371282e-02 2.066458516458479888e+00 9.016705265771327027e-02 1.204583527901275541e+00 2.568398573067043333e-01 5.619403533812900725e-02 -3.275380009972057860e-02 -3.272654640395812886e-01 -5.222528017030616532e-01 3.254363810994483353e-01 -7.370345500208790313e-01 -5.994702351082117353e-01 9.282032849535672980e-01 6.748765832968457445e-01 8.962578397545746256e-01 8.190203517431087210e-01 -1.426599846892337098e+00 3.882396947703095069e-01 8.586832208289484347e-01 -4.435929793052005854e-01 -1.117332106469469899e+00 -8.331156546590444689e-01 -4.873572724929520761e-01 -6.528802797131724178e-01 5.609134546937878385e-01 -1.862095393232040763e+00 -1.298898284521629254e+00 2.962425307311137776e-02 -3.537632554101319826e-01 -3.177138150058537169e-01 -1.256419028800111137e+00 -9.638593465416517292e-01 2.356014635755646847e+00 -7.217277431952009437e-01 3.391609309088797208e-01 -2.539489086731852585e-01 1.371691363241116512e+00 3.240824380627966850e-01 -2.094045427218179101e-01 -4.242809076437916160e-01 -7.460766063659161063e-01 3.234154938476287433e-01 -4.162878614752715256e-01 1.187429126191173134e+00 -6.589830506812628386e-01 -5.013240202401969547e-02 1.110446691634390026e+00 -1.945953472431083409e+00 -2.681655162462976083e+00 1.830321697738418907e+00 1.826503095007627087e+00 -5.488894326557984815e-01 -2.808488206114008734e-01 -1.696103416756436166e+00 4.771967861803048661e-01 2.086440103438430005e-01 -2.539746197069234213e-01 -2.758752782450906160e-01 -2.770610711210947041e+00 -2.111719191809792173e-01 -1.750988246256618142e-01 -2.552930815170164069e-01 -1.723709867901776605e+00 1.555138560521559521e+00 3.699005286255526159e-01 9.815531657395809573e-01 -9.899827852609749401e-01 -1.223192145679608406e-01 1.115706140695868598e+00 -1.931306924951801340e+00 9.579344959270295057e-01 -7.523089609440467562e-01 -1.658269116390054809e-01 3.544816216927763053e-01 1.735310172103760706e+00 -4.436870816886822610e-01 -1.127975445995720083e+00 2.863854346165768949e-01 -1.923093792334482854e+00 -1.384861068942478068e+00 -1.718412366510365386e-01 6.362771225664163310e-01 6.891636905244681310e-01 2.171857299723355395e-01 1.319904199085708552e+00 -4.051446994531516799e-01 1.177030041485435996e+00 9.100842052576091357e-01 -1.629234674430896757e+00 9.921785075422141498e-01 -8.028686803487948831e-01 4.199460273555373213e-01 1.329975725221621774e+00 1.063295226861972753e-01 1.464747307649649555e+00 -1.236366479367042998e-01 2.287551809338341235e-01 -7.538963601670409798e-01 -1.441444369331402742e+00 -7.706136743035946202e-01 3.760171835518616446e-01 -4.527142256341513127e-01 3.794249239635177351e-01 7.434412254077544802e-01 -6.830542346876057325e-01 6.029576797244561304e-01 3.270695459624964885e-01 7.162194113271369567e-01 4.838096640577603247e-01 -5.378455152239079995e-01