8.895104999999999151e+00 1.254580499999999965e+01 1.346950000000000092e-01 7.456445000000000434e+00 3.888485000000000191e+00 4.679104999999999848e+00 1.230874999999999941e+00 1.108650500000000072e+01 1.248180499999999959e+01 1.284834999999999949e+00 1.043370499999999979e+01 1.865205000000000002e+00 8.869804999999999495e+00 9.015605000000000757e+00 4.596994999999999720e+00 4.426194999999999879e+00 1.484315000000000051e+00 2.147314999999999863e+00 3.819855000000000000e+00 1.154680500000000087e+01 1.207230500000000006e+01 1.126349999999999990e-01 8.466025000000000134e+00 7.092234999999999623e+00 7.523825000000000429e+00 2.241985000000000117e+00 9.381304999999999339e+00 3.198299999999999754e-02 3.979775000000000063e+00 6.571494999999999642e+00 8.958804999999999907e+00 3.775424999999999809e+00 1.598050000000000026e-01 2.555004999999999971e+00 2.764984999999999804e+00 3.933594999999999953e+00 7.692050000000000276e-01 8.067265000000000796e+00 2.606145000000000156e+00 9.777205000000000368e+00 4.858365000000000045e+00 8.969205000000000538e+00 1.153460500000000089e+01 1.117550499999999936e+01 1.395704999999999973e+00 8.245124999999999815e+00 2.011795000000000222e+00 3.601694999999999869e+00 1.070130499999999962e+01 1.000830500000000001e+01 5.172125000000000306e+00 6.812249999999999694e-01 1.193890500000000010e+01 3.803885000000000183e+00 7.943995000000000140e+00 1.166100499999999940e+01 2.007915000000000116e+00 4.575445000000000206e+00 3.545104999999999951e+00 1.056934999999999958e+00 4.950054999999999872e+00 2.052385000000000126e+00 5.923325000000000173e+00 7.758004999999999818e+00 1.281760500000000036e+01 3.867995000000000072e+00 4.235849999999999893e-01 7.485025000000000261e+00 5.013264999999999638e+00 9.695805000000000007e+00 1.793665000000000065e+00 1.046410499999999999e+01 1.211440499999999965e+01 6.960844999999999949e+00 1.066980500000000021e+01 7.312714999999999854e+00 8.979704999999999160e+00 1.308850000000000013e-01 6.882545000000000357e+00 3.979550000000000032e-01 1.250180499999999917e+01 1.208360500000000037e+01 9.543704999999999217e+00 8.719205000000000538e+00 5.617575000000000429e+00 7.004324999999999690e+00 9.544904999999999973e+00 1.061490500000000026e+01 1.134004999999999930e+00 6.716775000000000162e+00 7.643745000000000012e+00 3.585175000000000001e+00 7.289875000000000327e+00 6.095464999999999911e+00 6.474384999999999835e+00 1.285640500000000053e+01 4.342195000000000249e+00 1.043940500000000071e+01 5.343275000000000219e+00 5.433304999999999829e+00 3.200895000000000046e+00 9.732805000000000817e+00 1.106620500000000007e+01 8.454945000000000377e+00 3.675574999999999815e+00 5.411464999999999748e+00 8.238499999999999990e-02 4.800995000000000346e+00 6.653195000000000192e+00 1.309670500000000004e+01 7.960664999999999658e+00 8.531344999999999956e+00 8.746605000000000629e+00 8.859405000000000641e+00 4.939450000000000229e-01 2.827245000000000008e+00 1.003570500000000010e+01 9.563049999999999606e-01 4.197745000000000282e+00 4.481595000000000439e+00 4.682254999999999612e+00 4.142049999999999899e-01 1.151640500000000067e+01 4.454634999999999678e+00 1.317000499999999974e+01 6.974414999999999587e+00 9.230805000000000149e+00 9.723604999999999166e+00 1.106670500000000068e+01 4.517294999999999838e+00 6.267864999999999576e+00 2.079975000000000129e+00 1.173180499999999959e+01 6.265455000000000219e+00 3.033615000000000173e+00 6.660014999999999574e+00 9.892804999999999183e+00 5.153984999999999594e+00 2.094304999999999861e+00 3.682644999999999946e+00 7.509050000000000447e-01 7.083874999999999922e+00 6.209925000000000139e+00 5.658005000000000173e+00 1.197150500000000051e+01 1.267190500000000064e+01 7.674744999999999706e+00 2.330985000000000085e+00 9.510704999999999742e+00 9.151305000000000689e+00 1.320050499999999971e+01 1.274890500000000060e+01 1.465114999999999945e+00 8.955705000000000027e+00 7.703325000000000422e+00 1.188660499999999942e+01 1.588514999999999899e+00 7.570249999999999480e-01 4.814944999999999808e+00 3.030374999999999819e+00 2.430414999999999992e+00 9.603704999999999714e+00 3.656035000000000146e+00 7.940095000000000347e+00 7.714814999999999756e+00 9.409504999999999342e+00 6.152675000000000338e+00 6.763544999999999696e+00 7.497444999999999915e+00 1.117380499999999977e+01 1.189370500000000064e+01 5.633605000000000196e+00 1.091790499999999930e+01 5.821150000000000491e-01 1.224980500000000028e+01 4.660375000000000156e+00 8.753705000000000069e+00 6.764705000000000190e+00 5.966644999999999754e+00 1.801244999999999985e+00 2.937350000000000239e-01 8.831604999999999706e+00 1.026230499999999957e+01 4.109004999999999797e+00 7.409085000000000143e+00 3.544725000000000126e+00 1.283280500000000046e+01 9.509005000000000152e+00 4.949649999999999883e-01 8.230774999999999508e+00 7.587754999999999583e+00 1.781725000000000003e+00 1.177880500000000019e+01 1.714944999999999942e+00 8.943804999999999339e+00 2.837594999999999867e+00 1.114480499999999985e+01 7.456364999999999910e+00 1.075970500000000030e+01 1.209010499999999944e+01 9.839605000000000601e+00 4.395895000000000330e+00 4.228105000000000224e+00 6.388374999999999915e+00 2.552974999999999994e+00 7.214500000000000079e-02 8.666904999999999859e+00 9.749805000000000277e+00 1.490744999999999987e+00 1.300590500000000027e+01 9.772304999999999353e+00 5.914685000000000414e+00 9.502350000000000518e-01 3.624425000000000008e+00 9.778105000000000047e+00 1.372174999999999923e+00 1.293865000000000043e+00 5.562495000000000189e+00 9.089204999999999757e+00 1.041570500000000088e+01 4.570384999999999920e+00 3.886245000000000172e+00 2.662574999999999914e+00 7.003749999999999698e-01 1.239080500000000029e+01 8.732604999999999507e+00 5.129195000000000171e+00 1.130780500000000011e+01 9.713749999999999885e-01 7.569865000000000066e+00 2.369950000000000112e-01 4.613034999999999997e+00 8.591554999999999609e+00 1.090760500000000022e+01 4.570425000000000182e+00 4.915174999999999628e+00 1.232480499999999957e+01 3.248095000000000176e+00 5.000115000000000087e+00 4.354395000000000238e+00 7.930204999999999949e+00 1.035720500000000044e+01 7.197725000000000151e+00 6.197644999999999627e+00 2.295000000000000165e-03 1.428285000000000027e+00 1.210510500000000000e+01 3.994565000000000143e+00 2.443754999999999900e+00 9.644804999999999851e+00 2.942114999999999814e+00 5.484474999999999767e+00 1.235260500000000050e+01 2.932284999999999808e+00 1.217930499999999938e+01 1.247640499999999975e+01 1.237890499999999960e+01 1.126630499999999913e+01 4.907104999999999606e+00 9.926705000000000112e+00 8.045534999999999215e+00 1.041870499999999922e+01 7.850545000000000329e+00 9.014905000000000612e+00 3.324644999999999850e+00 6.703974999999999795e+00 1.008540499999999973e+01 1.916875000000000107e+00 1.062460500000000074e+01 5.313144999999999563e+00 1.259340500000000063e+01 1.324155700000000024e+01 5.387914999999999566e+00 6.586834999999999773e+00 5.089825000000000266e+00 8.769405000000000783e+00 9.652549999999999741e-01 6.957499999999999796e-02 1.041730500000000070e+01 1.145810499999999976e+01 5.305295000000000094e+00 1.268170499999999912e+01 1.278760499999999922e+01 1.931494999999999962e+00 1.020014999999999894e+00 8.511295000000000499e+00 1.220090500000000056e+01 8.851905000000000356e+00 5.587604999999999933e+00 1.058790499999999923e+01 1.032340499999999928e+01 1.191330499999999937e+01 6.866895000000000415e+00 6.465455000000000396e+00 8.481624999999999304e+00 1.541150000000000020e-01 6.378425000000000011e+00 4.642714999999999925e+00 6.840774999999999828e+00 5.796664999999999957e+00 1.000430500000000045e+01 4.888850000000000140e-01 4.515625000000000000e+00 1.119930500000000073e+01 1.199060500000000040e+01 3.757074999999999942e+00 2.097245000000000026e+00 5.571855000000000224e+00 1.259640500000000074e+01 2.148495000000000044e+00 4.438564999999999650e+00 7.228785000000000238e+00 2.291345000000000187e+00 1.253905000000000047e+00 1.264974999999999961e+00 4.137184999999999668e+00 7.645525000000000126e+00 3.167749999999999733e-01 6.038515000000000299e+00 7.004525000000000112e+00 5.890245000000000175e+00 1.127280499999999996e+01 7.018295000000000172e+00 9.589104999999999990e+00 9.462704999999999700e+00 1.250550499999999943e+01 9.794404999999999362e+00 3.649144999999999861e+00 3.612525000000000208e+00 3.997574999999999878e+00 1.220720500000000008e+01 1.822354999999999947e+00 1.302630500000000069e+01 7.451794999999999725e+00 1.306140500000000060e+01 9.051705000000000112e+00 2.584554999999999936e+00 1.739384999999999959e+00 4.831154999999999866e+00 2.636305000000000121e+00 1.047520500000000077e+01 1.971055000000000001e+00 1.052920499999999926e+01 7.016465000000000174e+00 6.522504999999999775e+00 1.221004999999999896e+00 3.483375000000000110e+00 7.059985000000000177e+00 1.026490500000000061e+01 1.689794999999999936e+00 1.171930500000000031e+01 1.701724999999999932e+00 1.080170500000000011e+01 6.729854999999999698e+00 9.408105000000000828e+00 7.218964999999999854e+00 1.147454999999999892e+00 3.504224999999999923e+00 7.785675000000000345e+00 1.099550499999999964e+01 1.283810500000000054e+01 3.274549999999999961e-01 1.063540500000000044e+01 7.983005000000000351e+00 3.287675000000000125e+00 5.885885000000000034e+00 5.815265000000000128e+00 8.077965000000000728e+00 1.031590500000000077e+01 1.353874999999999940e+00 4.666545000000000165e+00 1.431350000000000122e-01 1.319310499999999919e+01 8.392144999999999300e+00 1.308820500000000031e+01 2.452335000000000154e+00 8.364385000000000403e+00 8.317014999999999603e+00 1.211210499999999968e+01 1.234770499999999949e+01 7.981049999999999534e-01 3.327624999999999833e+00 8.741904999999999148e+00 4.624849999999999794e-01 1.435955000000000092e+00 9.505604999999999194e+00 1.016740500000000047e+01 4.844534999999999592e+00 8.594995000000000829e+00 8.032614999999999839e+00 6.823965000000000281e+00 1.028590499999999963e+01 1.306850500000000004e+01 8.451285000000000380e+00 4.109314999999999607e+00 1.215530500000000025e+01 4.045815000000000161e+00 1.254250500000000024e+01 1.109850499999999940e+01 1.794335000000000013e+00 1.285350500000000018e+01 4.148654999999999760e+00 1.065474999999999950e+00 7.513415000000000177e+00 3.804975000000000218e+00 1.302300499999999950e+01 4.062084999999999724e+00 5.177385000000000126e+00 7.140374999999999694e+00 3.366750000000000020e-01 6.736024999999999707e+00 1.174390499999999982e+01 9.137605000000000643e+00 4.662844999999999906e+00 6.492214999999999847e+00 1.264390500000000017e+01 4.328215000000000146e+00 8.676204999999999501e+00 1.139400499999999994e+01 7.716845000000000176e+00 1.516149999999999998e-01 8.365449999999999831e-01 1.621764999999999901e+00 7.648374999999999702e+00 3.194115000000000038e+00 3.532634999999999970e+00 8.122355000000000658e+00 2.849874999999999936e+00 8.302604999999999791e+00 1.191280500000000053e+01 6.074675000000000047e+00 1.162250500000000031e+01 1.103920500000000082e+01 4.401945000000000441e+00 9.353104999999999336e+00 1.069660499999999992e+01 1.134750499999999995e+01 4.985204999999999664e+00 1.052314999999999889e+00 7.211244999999999905e+00 1.516135000000000010e+00 7.113414999999999822e+00 1.068470499999999923e+01 6.142014999999999780e+00 7.028545000000000265e+00 5.971345000000000347e+00 4.496049999999999769e-01 3.049164999999999903e+00 1.403874999999999984e+00 2.397225000000000161e+00 1.187010500000000057e+01 9.049949999999999939e-01 7.804814999999999614e+00 7.527754999999999974e+00 9.077004999999999768e+00 4.456375000000000419e+00 1.272860499999999995e+01 5.252794999999999881e+00 2.667384999999999895e+00 5.411175000000000068e+00 9.976404999999999745e+00 4.693374999999999631e+00 8.802050000000000152e-01 8.381935000000000358e+00 5.969104999999999883e+00 5.643785000000000274e+00 5.656525000000000247e+00 1.183930499999999952e+01 1.257730500000000085e+01 6.614885000000000126e+00 5.290905000000000413e+00 5.151724999999999888e+00 2.600235000000000074e+00 1.890425000000000022e+00 3.899395000000000167e+00 6.370795000000000208e+00 8.067349999999999799e-01 3.731005000000000127e+00 6.951195000000000235e+00 6.875625000000000320e+00 8.698005000000000209e+00 9.744305000000000661e+00 9.770004999999999384e+00 3.503744999999999887e+00 4.176264999999999894e+00 7.400854999999999961e+00 4.992345000000000255e+00 3.738424999999999887e+00 1.303820499999999960e+01 6.668224999999999625e+00 1.198850499999999997e+01 1.416055000000000064e+00 3.486654999999999838e+00 6.082264999999999588e+00 3.220544999999999991e+00 1.239250499999999988e+01 9.585404999999999731e+00 1.006960499999999925e+01 7.234749999999999792e-01 1.047690500000000036e+01 3.057050000000000045e-01 9.159404999999999575e+00 6.339114999999999611e+00 1.178230499999999914e+01 5.694085000000000285e+00 1.050320499999999946e+01 8.984305000000000874e+00 2.300365000000000215e+00 1.464749999999999941e-01 3.729350000000000165e-01 5.355855000000000032e+00 3.318525000000000169e+00 6.169035000000000046e+00 3.527549999999999852e-01 9.935150000000000370e-01 5.440414999999999779e+00 3.098055000000000003e+00 1.263960499999999954e+01 7.537505000000000344e+00 6.057694999999999830e+00 7.092049999999999743e-01 1.146810499999999955e+01 4.235775000000000290e+00 1.056790499999999966e+01 6.899765000000000370e+00 9.890105000000000146e+00 4.228684999999999583e+00 5.086445000000000327e+00 1.112740499999999955e+01 5.892305000000000348e+00 6.513750000000000373e-01 3.289724999999999788e+00 4.077964999999999840e+00 1.442695000000000061e+00 6.164145000000000429e+00 4.381495000000000140e+00 9.934504999999999697e+00 7.727014999999999745e+00 8.142155000000000697e+00 1.230770500000000034e+01 9.376205000000000567e+00 5.088334999999999830e+00 7.672945000000000348e+00 8.327524999999999622e+00 6.642775000000000318e+00 6.123635000000000161e+00 1.155820499999999917e+01 9.940105000000000857e+00 6.694250000000000478e-01 3.225274999999999892e+00 5.146955000000000169e+00 1.189580499999999930e+01 2.087505000000000166e+00 6.073584999999999567e+00 1.005440499999999915e+01 1.121530500000000075e+01 1.185790500000000058e+01 1.108890500000000046e+01 1.273590500000000070e+01 3.122895000000000199e+00 1.683845000000000036e+00 8.367884999999999351e+00 1.901164999999999994e+00 1.040930499999999981e+01 7.822214999999999918e+00 1.258760499999999993e+01 1.240100499999999961e+01 1.311910499999999935e+01 9.681404999999999816e+00 7.755295000000000272e+00 8.270049999999999901e-01 1.070610500000000087e+01 4.515855000000000175e+00 6.763044999999999973e+00 8.969350000000000378e-01 5.274050000000000127e-01 1.080860500000000002e+01 9.045204999999999274e+00 8.343225000000000335e+00 7.675575000000000259e+00 8.781304999999999694e+00 1.430185000000000040e+00 4.808914999999999829e+00 7.772744999999999571e+00 2.437805000000000000e+00 2.907875000000000210e+00 1.068170499999999912e+01 8.876405000000000101e+00 1.267840499999999970e+01 7.310665000000000191e+00 7.538644999999999818e+00 1.255530500000000060e+01 1.237010500000000057e+01 6.539394999999999847e+00 4.781455000000000233e+00 1.175640500000000088e+01 1.309080499999999958e+01 5.435444999999999638e+00 1.474164999999999948e+00 4.719895000000000174e+00 1.117870500000000078e+01 1.109210500000000010e+01 2.674145000000000216e+00 1.724304999999999977e+00 7.113949999999999996e-01 1.135800500000000035e+01 6.326500000000000179e-02 3.141404999999999781e+00 1.127480500000000063e+01 4.374335000000000306e+00 5.292955000000000076e+00 5.456154999999999866e+00 7.548734999999999751e+00 6.693315000000000126e+00 2.619765000000000121e+00 6.164284999999999570e+00 2.026914999999999800e+00 9.478305000000000646e+00 4.412435000000000329e+00 6.315744999999999720e+00 9.370704999999999174e+00 8.980404999999999305e+00 4.774854999999999627e+00 1.077704999999999913e+00 1.286860500000000052e+01 2.484175000000000022e+00 9.076204999999999856e+00 4.557324999999999626e+00 9.973105000000000331e+00 1.113190499999999972e+01 1.047360499999999917e+01 5.884554999999999758e+00 3.477825000000000166e+00 1.276145000000000085e+00 3.220305000000000195e+00 3.496494999999999909e+00 1.052930500000000080e+01 1.747104999999999908e+00 9.438605000000000800e+00 7.915695000000000370e+00 7.902749999999999497e-01 3.002994999999999859e+00 4.331394999999999662e+00 1.357704999999999940e+00 6.924534999999999663e+00 9.439405000000000712e+00 1.898654999999999982e+00 4.410544999999999938e+00 2.586634999999999796e+00 1.104420499999999983e+01 1.226300499999999971e+01 6.716124999999999901e+00 4.557145000000000223e+00 7.493425000000000225e+00 9.776704999999999757e+00 2.232750000000000012e-01 2.319050000000000000e-01 4.107734999999999914e+00 3.127295000000000158e+00 9.988704999999999501e+00 1.371275000000000022e+00 1.290400499999999973e+01 9.161405000000000243e+00 6.735565000000000246e+00 6.437045000000000350e+00 9.005205000000000126e+00 9.711705000000000254e+00 8.721605000000000274e+00 3.432844999999999924e+00 7.146649999999999947e-01 1.179150500000000079e+01 2.237674999999999859e+00 9.053105000000000402e+00 7.471845000000000070e+00 8.972804999999999254e+00 1.160390499999999925e+01 1.183820500000000031e+01 8.665105000000000501e+00 6.688584999999999781e+00 1.121930500000000031e+01 1.081510500000000086e+01 4.003635000000000055e+00 7.716264999999999930e+00 4.827645000000000408e+00 5.585485000000000255e+00 5.341364999999999696e+00 2.092554999999999943e+00 9.961904999999999788e+00 8.582105000000000317e+00 1.149580500000000072e+01 1.230260499999999979e+01 4.498705000000000176e+00 7.353415000000000035e+00 1.569174999999999986e+00 6.834374999999999645e+00 1.250340500000000077e+01 7.007724999999999760e+00 5.152395000000000280e+00 4.732025000000000148e+00 1.727335000000000065e+00 5.630074999999999719e+00 7.731105000000000338e+00 1.183060500000000026e+01 7.647965000000000124e+00 2.872355000000000214e+00 1.111870500000000028e+01 6.399749999999999606e-01 5.395514999999999617e+00 8.766405000000000669e+00 1.300490500000000083e+01 5.104375000000000107e+00 3.901734999999999953e+00 1.330775000000000041e+00 1.223540500000000009e+01 3.217235000000000067e+00 1.139154999999999918e+00 9.117205000000000226e+00 1.033170499999999947e+01 2.524655000000000094e+00 6.666294999999999860e+00 8.878104999999999691e+00 1.144010500000000086e+01 1.005714999999999915e+00 3.201534999999999798e+00 1.044690499999999922e+01 4.699164999999999814e+00 4.578924999999999912e+00 1.256600500000000054e+01 5.630505000000000315e+00 7.891295000000000393e+00 9.102204999999999657e+00 7.696525000000000283e+00 1.039770500000000020e+01 1.315870499999999943e+01 3.329305000000000181e+00 9.100804999999999367e+00 2.496315000000000062e+00 4.459650000000000003e-01 1.912234999999999907e+00 5.080705000000000027e+00 4.919705000000000439e+00 1.143320499999999917e+01 3.973724999999999952e+00 1.255220500000000072e+01 9.539604999999999890e+00 3.688250000000000139e-01 7.179784999999999862e+00 4.468349999999999822e-01 9.382804999999999396e+00 2.307694999999999830e+00 7.600500000000000311e-02 5.073394999999999655e+00 9.551505000000000578e+00 5.389515000000000278e+00 7.740655000000000285e+00 1.291360500000000044e+01 8.208714999999999762e+00 1.161650500000000008e+01 3.259145000000000181e+00 3.497649999999999926e-01 1.161710500000000046e+01 1.157350500000000082e+01 8.718004999999999782e+00 4.859035000000000437e+00 9.908305000000000362e+00 5.399214999999999876e+00 1.268950500000000048e+01 7.983965000000000423e+00 9.496005000000000251e+00 9.408905000000000740e+00 5.727125000000000021e+00 5.061304999999999943e+00 2.588050000000000073e-01 2.109385000000000066e+00 1.804075000000000095e+00 3.022355000000000125e+00 9.758305000000000007e+00 1.210750000000000021e-01 7.548354999999999926e+00 1.052240499999999912e+01 1.262120499999999979e+01 1.257650499999999916e+01 4.069314999999999571e+00 5.003555000000000419e+00 1.009760499999999972e+01 1.430614999999999970e+00 1.733735000000000026e+00 2.356854999999999922e+00 5.426950000000000385e-01 1.090900500000000051e+01 3.557624999999999815e+00 3.001145000000000174e+00 8.848005000000000564e+00 1.068990499999999955e+01 1.189610500000000037e+01