-7.788778034006281814e+04
-7.786896893065370386e+04
-7.788120487419571145e+04
-7.789833731323774555e+04
-7.787011698850162793e+04
-7.785977015384066908e+04
-7.787373537220631260e+04
-7.789344681503355969e+04
-7.787612381087627728e+04
-7.788633147501994972e+04
-7.786962578450016736e+04
-7.781560212852359109e+04
-7.788116491908715398e+04
-7.785574219220239320e+04
-7.788354421158130572e+04
-7.787278870364086470e+04
-7.787042410350868886e+04
-7.787519852800267108e+04
-7.787557057234810782e+04
-7.789982128428050783e+04
-7.788792397347973019e+04
-7.787460598405367637e+04
-7.777076641920721158e+04
-7.787419049034558702e+04
-7.791134154281273368e+04
-7.785360879105649656e+04
-7.786035182402229111e+04
-7.787963054362029652e+04
-7.788863579204869166e+04
-7.781711699556261010e+04
-7.790048999218942481e+04
-7.786274297147594916e+04
-7.787735253526727320e+04
-7.784230507801630301e+04
-7.779659483587172872e+04
-7.782166252782245283e+04
-7.788433250011890777e+04
-7.789434979274305806e+04
-7.786429583960067248e+04
-7.787589200298248034e+04
-7.787479311430017697e+04
-7.782728549658416887e+04
-7.787468193047368550e+04
-7.786463533701913548e+04
-7.786074894953513285e+04
-7.771469804935660795e+04
-7.787877566232800018e+04
-7.787633331080719654e+04
-7.788744092340115458e+04
-7.788373974652952165e+04
-7.788332446372027334e+04
-7.783616783496027347e+04
-7.784343060963597964e+04
-7.788990018787329609e+04
-7.789009280076333380e+04
-7.786506602332163311e+04
-7.785100554985413328e+04
-7.786784130172416917e+04
-7.787799608062382322e+04
-7.788486661620270752e+04
-7.789494492944578815e+04
-7.790812244158661633e+04
-7.789334937522461405e+04
-7.768155785407696385e+04
-7.788142737801121257e+04
-7.782926606399638695e+04
-7.789781591083713283e+04
-7.788107169926339702e+04
-7.788171379395014083e+04
-7.789433522045204882e+04
-7.789589788787688303e+04
-7.787853350622465950e+04
-7.781623735875634884e+04
-7.788346235252896440e+04
-7.789044041405944154e+04
-7.787528724949750176e+04
-7.782657234006692306e+04
-7.788632411853548547e+04
-7.790400685938422976e+04
-7.787042301974416478e+04
-7.787121024547019624e+04
-7.769656239839809132e+04
-7.788046703069719661e+04
-7.787202037782338448e+04
-7.777665401688705606e+04
-7.787596269438338641e+04
-7.774617799096387171e+04
-7.786795500565235852e+04
-7.783919239464132988e+04
-7.789600292653896031e+04
-7.769689958160569950e+04
-7.768622993419470731e+04
-7.789193124434252968e+04
-7.787727531313376676e+04
-7.788925685137708206e+04
-7.789155970202035678e+04
-7.789108673885249300e+04
-7.786692738518551050e+04
-7.788948052001898759e+04
-7.785550917984485568e+04
-7.788885340689418081e+04
-7.782137331640273624e+04
-7.789079701042675879e+04
-7.788203063308005221e+04
-7.788030686436202086e+04
-7.775552739807096077e+04
-7.787247662144855713e+04
-7.786225023340202461e+04
-7.782929468135765637e+04
-7.787423966201633448e+04
-7.787347783372821868e+04
-7.788204070123549900e+04
-7.788225880188027804e+04
-7.788722484335515765e+04
-7.788740492402926611e+04
-7.786549353820060787e+04
-7.787117473867147055e+04
-7.785908481435084832e+04
-7.788959153776131279e+04
-7.788968148772147833e+04
-7.791056920328793058e+04
-7.787547299182775896e+04
-7.789345138043764746e+04
-7.787321326013626822e+04
-7.787924488923998433e+04
-7.787317757424782030e+04
-7.786180889651295729e+04
-7.782435286139098753e+04
-7.768308117532267352e+04
-7.769702782248418953e+04
-7.784910379694352741e+04
-7.790675953998991463e+04
-7.789472163659502985e+04
-7.784986412727643619e+04
-7.782929190892820770e+04
-7.787344816953911504e+04
-7.786654857183452987e+04
-7.786528361825644970e+04
-7.790648176065812004e+04
-7.788474851036648033e+04
-7.787883611413337348e+04
-7.766355592512879230e+04
-7.788518044552156061e+04
-7.788321339996639290e+04
-7.779615120968037809e+04
-7.787117468260604073e+04
-7.787331038677004108e+04
-7.785852344164556416e+04
-7.788424739572229737e+04
-7.789319842178547697e+04
-7.786470367713838641e+04
-7.787619021481221716e+04
-7.786938205697755620e+04
-7.786673955096132704e+04
-7.789280397254711716e+04
-7.789426715250144480e+04
-7.783382246357326221e+04
-7.789157136864028871e+04
-7.785888741756991658e+04
-7.787307598647323903e+04
-7.782259792004324845e+04
-7.765352167087412090e+04
-7.790599478469201131e+04
-7.789846407382696634e+04
-7.789989086436205253e+04
-7.789771125271161145e+04
-7.789214901818906947e+04
-7.788747198745263449e+04
-7.788993258688034257e+04
-7.779047960972524015e+04
-7.780030462647935201e+04
-7.790217759749641118e+04
-7.789698990131590108e+04
-7.788191614501833101e+04
-7.783426957729055721e+04
-7.787425031120133644e+04
-7.784190782249801850e+04
-7.786445028672603075e+04
