-5.989693841709923250e-01 -3.036957480352674654e+00 8.143944225529384795e-01 -4.324621585792751133e-01 1.997421305547463444e+00 1.471562274252286917e+00 1.640278591862787128e+00 4.405127974633687438e-01 -2.137750585028332484e+00 -6.644805839151568527e-01 6.155355174291655684e-01 -7.916956935275386575e-01 1.177256812803006425e-01 -4.652308710785637430e-02 -1.416909358276423614e+00 1.099089613811568444e+00 -2.972812564941356150e-01 1.686422698333343018e-01 1.097072840325147070e+00 4.966307281416327823e-01 3.926208549192924946e-01 -3.902430985191872037e-01 3.979507522132136876e-01 1.062688446465752223e+00 5.779768393444570940e-01 -1.512986349149191001e-01 1.786171224823920323e-01 -1.071332496008522650e+00 3.283756664763951560e-01 -1.486701959358666780e+00 -1.536812249893671822e+00 2.000047430533479442e+00 -1.717166924036088949e+00 -1.188574809854545666e-01 5.586647676830480691e-01 4.194863140722990269e-01 3.467096904144044145e-01 -1.976187077003789705e+00 -1.168383935059966294e+00 -3.635247064791630178e-01 -5.789230053860214831e-01 1.127099728186597982e+00 -2.447716122906853642e-01 -9.126049150052987224e-01 -1.511078590445819325e-01 5.626011269483608412e-01 -3.480486182073529555e+00 -1.235821919672468905e+00 2.324709395296734038e-01 6.583197060108182397e-01 4.103846081289893588e-01 1.317693564404901263e+00 5.665410857583969007e-01 1.409888703403880728e+00 9.991965913113829423e-01 -1.292724036879746796e+00 -2.649711774146682686e+00 -2.068423353656749786e+00 3.789549262667841756e-01 7.812626702572669224e-01 5.613747106390504574e-03 -2.085559757643235645e+00 -1.818690540295948843e-01 6.914725413541550868e-03 9.511786647019897512e-01 1.293772532835589129e+00 2.910879826872869169e-01 8.345544441070319730e-02 4.224981045643874111e-01 2.245977067783731518e-01 9.612687027821945063e-02 2.293179440402950409e+00 1.318345081999826363e+00 -8.553186749539724854e-02 -1.008857769348835198e+00 1.133977429711556573e+00 8.270313956352456919e-02 -7.053395302904958974e-01 -1.841174839299972277e+00 7.657584026924798559e-01 -9.117595362159877648e-02 -1.633308844837046137e-01 -3.323901872842719429e-01 -3.247802355184504219e-01 5.595096322516841525e-01 -1.429323159585883296e+00 -5.084655169713091505e-01 5.465327593033584286e-01 1.433498631464960926e+00 3.308326128604139882e-01 -1.526412650967259692e-02 -1.626397718968227712e-01 -1.339166905562340082e+00 -6.934075537532892186e-01 -4.266077561970953863e-02 -1.243583052316670656e+00 5.833818128568936112e-01 7.284126119671233690e-01 1.987501474510604993e+00 1.187268175119972291e+00 -1.037029863236414995e+00 3.112922272194101336e-01 -3.772590264814149053e-01 8.839114013535088743e-01 -2.952274591191311193e-01 1.565278478007216423e+00 -8.687094955454824907e-01 7.957559799754694296e-01 -8.470032124223759729e-01 7.727050097878568335e-01 -1.516159604933154936e+00 -9.561635199231448556e-01 2.024548503023924362e-01 -1.627967634688280096e+00 5.577489406612946565e-01 9.560869010426051862e-01 9.416882079285591178e-01 -1.177159110874801268e-01 -1.411191738593730705e+00 -1.242907366350031628e+00 1.136068250975144078e+00 1.716148252879382552e+00 1.288142330667606084e+00 -2.182563374171926363e-01 3.193541789583485002e-01 -2.771798560969650493e-01 -1.459291426290411364e-01 -1.287331918884179416e+00 -1.119125193962369424e+00 -9.580357973999579224e-01 -3.213179877152694264e-01 1.221376946697693908e-02 7.500268495894474308e-01 -6.586873737932739115e-01 -6.272376373247530168e-01 1.470617650872746873e+00 -5.340017156800526132e-01 -7.176618003198478313e-01 1.794918632722317886e+00 1.351113794499114729e+00 6.229078992432464101e-01 8.070302682696539609e-01 -1.896394426459424923e-02 -3.692937482293319751e-01 1.131413525427187095e+00 1.045523760342154551e+00 -1.893756474397889356e-01 -1.315215020752542152e+00 -1.325262378516741446e+00 -5.706851901763139168e-01 -2.810663359568257857e-01 8.581299193829031724e-01 9.456204534284736729e-01 9.216294878473938468e-01 -9.682456488973822939e-01 4.506475727422777633e-02 -1.130118203547458622e+00 6.121894834984809020e-01 5.071506547059394521e-01 -6.475580957293727291e-01 -1.137703472720891451e+00 -3.889272078124680343e-01 -7.594612563093290358e-01 5.771021499766847418e-01 -3.093808689713151497e-02 1.091568622222481189e+00 1.331586778595654996e+00 -6.087755724387276801e-02 7.720473215448344639e-01 -9.972045004173500926e-01 5.282213610750388089e-01 -2.995921642065216828e-01 1.430973293731198533e-02 -3.965870389837415910e-01 4.455130793047666904e-01 -1.776611862480071136e-01 -9.516851720666315018e-01 -5.521866156223804722e-01 -4.931597385869807559e-01 7.895858460989850502e-02 -1.213664665017594846e+00 2.479618373569166256e-01 2.816463768779586818e-01 -5.595564263330875532e-01 -8.117482429606067695e-01 1.245487725695993975e+00 -4.214161842646854672e-01 -3.341971587353900208e-01 -1.005637205262792655e+00 1.357410940882265660e+00 -9.172910080144160982e-01 5.381468485393192669e-01 -1.002422811824847715e+00 -1.323475461671939357e-01 1.123345917260826221e-01 5.651737729842014613e-01 -3.544934487682959157e-01 9.190794675212429210e-01 -4.645454149191043935e-01 -7.667441637260011267e-02 -1.808547023265568932e+00 -3.477499588394504793e-01 9.611046663869450279e-01 -2.111688338569306378e-01 6.405194431332132954e-01 1.599498835471361569e-01 -1.049412297084714396e+00 -2.053437420532124302e-01 1.944586673877563010e+00 -1.823238307943555014e+00 5.071969345666681450e-01 1.910838885213524962e-01 3.555835965987940162e-01 1.556465249862448719e+00 -4.225202160534022311e-01 -1.266093576575107127e+00 8.891806206078080033e-01 8.984036826303617440e-01 -1.273415564763061170e+00 3.785548625818183632e-01 -1.202054076402115035e+00 -9.427403034291246264e-01 -1.568063497181733990e+00 5.343277315878525169e-01 -7.541308447947330240e-01 3.456555380311397419e-01 -4.082711611557122700e-01 -1.230620577547238526e+00 -1.084463635159277350e+00 -1.643227647432554672e+00 -1.628364613049197107e+00 6.714256483485094851e-01 -1.578695009632464563e+00 -2.425285817073679906e-01 -9.185210238684499151e-01 -1.361160638042639537e+00 -6.119328873817740655e-02 1.744752292133763927e+00 -1.028577618005331429e+00 -6.522627006827818041e-01 -8.354543302878679467e-03 2.840909819657831958e-01 -7.421813847545843945e-01 -9.153271992574955052e-01 2.727713394080846676e+00 2.192420984507138237e-01 -1.644230891969017672e-01 5.156152412332175583e-01 4.466063124593132594e-01 6.356240623094669973e-01 -7.730659927015405275e-01 2.535571753631506109e+00 -1.466477660220227852e+00 1.380290161364507551e+00 1.080151380580712361e+00 4.297038788798449582e-01 -3.326920348203579736e-01 -8.644100964837869716e-01 -3.103522318259429036e-01 3.593137533735266675e-01 -7.878472659976104575e-01 -1.897196610712055531e-01 7.687115720276452846e-01 -1.063222721746831301e+00 -9.021724059557018061e-01 -3.630963606570851709e-01 1.274264028876420651e+00 4.491049107179879707e-01 2.157603102618917690e-01 1.094056421846985705e+00 3.248362855719996722e-01 1.129711969214395317e+00 1.834004031990398575e-01 -2.947152953270669173e-01 2.865371297156320551e-01 2.040465689790546211e+00 3.417320342826960511e-01 1.064993697750715951e+00 3.866445822371938901e-01 1.739982381154659974e+00 1.736122640769886871e+00 -8.396349443736931262e-01 -3.141471804056957251e-01 8.689398664077765400e-01 1.666568638080733744e-01 1.946330396185685097e-01 7.468901034733915756e-01 -5.659296773761033350e-01 1.233058497766291062e+00 -5.728418316862711078e-04 -2.284476769703256901e-02 -8.946750685176533269e-01 1.140654585173357521e-01 7.086027746925435133e-01 -2.103833617762297603e+00 -5.159834232363479378e-01 9.382953799164711617e-01 -1.296537497403791095e+00 -5.783121112244027362e-01 -2.632722437273178895e-01 6.664099398868685853e-01 -6.128116905149445515e-01 -1.627744977136107440e+00 -9.753881740698440161e-01 5.081446432702567684e-01 -4.974159431119962727e-01 -7.224584507740395845e-01 -2.896471363566002211e-01 1.129788588094935209e+00 7.845058600529988269e-01 9.508223097743788710e-01 1.363259686837023033e+00 -8.012535132093633328e-01 3.483845071521083359e-01 -1.454347708723237487e+00 1.051624988648220738e+00 8.669297777901269209e-02 2.919791271166516378e-01 -2.917857801429406539e-01 4.350178353328485459e-01 6.892397951843329817e-01 -3.507380951804998093e-01 -6.380856366795586432e-01 7.975732358400826616e-01 1.184154054713606019e+00 -1.196824452139772843e+00 -2.792979310563148965e-01 -1.103486200580794385e+00 1.616817273576713454e+00 6.038493383744956977e-02 1.680000082105550074e+00 -2.443710343850447886e-01 2.964230221879557425e-01 6.045533064782465660e-01 -1.308340404551632252e+00 -1.399595548157144542e-01 -6.295140922519300020e-01 -1.283736487926234515e+00 5.041404068758753576e-01 1.173796621882524427e+00 -1.704353573262337995e-01 1.801685262581527724e-01 4.053493592817075108e-01 -2.511611641290912189e+00 3.874791623923346529e-01 -3.535889346013872392e-01 -1.596386771947694516e+00 -1.068718712318700970e+00 -7.679623525045151666e-01 -4.128487536024548765e-01 1.647089958920701369e-01 2.445039604294711122e+00 4.277030462343411332e-01 -2.284890717346441669e+00 -1.283041261573954595e+00 1.942972535179480764e-01 6.446481209308874138e-01 -1.585398904569353118e-01 5.706491947290805999e-01 -7.051523539648820726e-01 -7.879794207110246695e-01 -1.558307188319450809e+00 1.110865781484322024e-01 -1.343602058882173433e-01 -1.058112910901708892e+00 1.613242925666434013e+00 -1.276834103808887289e+00 2.139070075279775551e+00 1.646721776917570823e+00 5.945542854574750180e-01 -1.331420171097031681e-02 -5.897535212378852698e-01 -3.944725635691149757e-01 -3.123324956444562331e-02 -1.855256772478364180e-01 7.159206491150994500e-01 2.654345416646973765e-01 5.633009812867135757e-01 -7.788350344517095403e-01 -1.337674122943502297e+00 -1.683980150128217557e-01 -6.235738150170647698e-01 1.893267964756864263e-01 4.019966404822509776e-01 1.484034696718669943e+00 1.374933524595498557e-01 3.790567419603872445e-01 -1.263291073897647443e-01 -1.763812909885213720e-01 -7.285838474518195607e-02 -1.277234681714527920e+00 1.280625452843916767e-01 -5.235141850182559731e-01 3.874246550008098033e-01 -6.322127223530875639e-01 -3.977944291280856581e-01 -1.523512446361594830e-01 -8.442644731085866550e-01 -1.353150108371177440e+00 -5.771869963880207344e-01 -6.399954522656294831e-01 -7.056429204886062179e-01 -4.072473477922586849e-01 2.577294590740447089e-01 5.473112894049501076e-01 7.713546662959284150e-01 -3.660063354555704862e-01 1.506066481528901990e+00 1.520311936881868276e+00 8.665081168368210518e-02 1.065830334788555878e-01 -1.946280002559558353e+00 7.597440776804487150e-01 5.926634960363704741e-01 -2.008563953348908360e+00 -2.022054532751322298e-01 -1.209616719865858475e-01 -1.330504858295953052e-01 3.067125778899685851e-01 1.510970604104118875e+00 5.175939623897064523e-01 -7.594684553987757214e-01 1.017234938361403218e+00 -7.805057374240153001e-01 6.950921406838137528e-01 -6.797647650311452461e-01 1.352390090213877460e-01 -1.197180807067383723e+00 -6.233460152581447034e-01 -5.259407923824637177e-01 -7.931020870730162153e-01 2.267284315663221861e+00 -8.713479618276929184e-01 8.621794071966638606e-01 2.032143542390177360e-01 3.094045231223542247e-01 -1.251727279363571199e+00 -3.311910246707240324e-01 7.545324511417230706e-01 7.309276652873903934e-01 2.427098959172895754e+00 -6.864126099144846060e-02 4.814622466774661214e-01 1.376063781638628303e+00 -6.816108172535453313e-01 1.329489272463295624e+00 -1.042984538650173487e+00 -2.683820545724404094e-01 2.288929920746706759e-01 -8.703724852076669682e-01 -1.081778374795663300e+00 -1.452709915874116131e+00 -1.676197420215675526e+00 -1.243051348138965451e-01 -6.892418520670320348e-01 -7.183354294037876953e-01 -2.329885026388226255e+00 1.176081818561172332e+00 7.099346062401804547e-01 -1.423861621799222543e-01 -6.910663070210920633e-02 -1.861221732305617937e-01 -4.781738054623550262e-03 -4.812246767257254421e-01 -3.905300336557051000e-01 -7.569318048101685292e-01 6.963247276412213305e-01 7.606156817241724877e-01 1.119926863994325394e+00 8.212654392091252031e-01 -1.155215772020628640e+00 -1.677038171018913615e-01 -1.920876472784903699e-01 -4.030909020781472396e-01 -6.969865296496415841e-01 5.912519602841452837e-01 -1.195125981251029756e+00 -1.363276141898615568e-01 -3.233152208160499086e-01 4.936595610828506397e-01 1.953724889488780703e-01 3.695282328570240749e-01 1.922958038076345133e+00 -1.379859758659730644e-02 -9.960557314299290921e-01 -8.030126621377285945e-01 -4.352363791196228911e-03 1.407903811599294563e+00 -6.843701253943249574e-01 -5.679279389182334548e-01 -1.590476833732640261e+00 1.039750090605912725e+00 6.890140523081119683e-01 5.027535537160388729e-02 2.834368932674843355e-01 -9.059915229071683340e-01 4.787317348944731266e-01 -7.774533234986206187e-01 1.055031700618527246e-01 -3.451382320323278519e-01 2.088210051000965795e+00 -1.767211908545398835e-01 4.675752031348094917e-01 -1.758680987551076436e-01 -6.873443777771556240e-01 1.899495177128247558e-01 -5.502114940106148655e-01 8.479714899529550154e-01 2.790048252716997856e-01 3.647907177804301515e-01 -1.641130141300194967e-01 -3.566048388588738405e-01 -8.189488750693165731e-01 3.460396608751878933e-01 -1.626860517575514642e-01 5.533888635599770039e-02 -7.892490315570150905e-01 3.730660710993952689e-01 5.483037353072430786e-01 -1.778519621183442811e-01 -1.474901109093524898e+00 8.733611357693908950e-01 -2.308902251754511858e-01 -6.292703516520921081e-01 -1.559132512502445500e-01 8.189858989578997495e-01 1.491413763401522541e+00 -1.338838832771841014e+00 -2.498659965155649865e-01 -8.034502639319520689e-01 -1.543220982163246102e+00 -8.869622726168792104e-01 -2.081585346047990281e+00 -1.651391929085770593e+00 -5.330884597616730725e-01 -1.198850995819014553e+00 -2.792300025051786427e+00 -3.729899664395303072e-01 1.143573815943988770e+00 7.752683998515516040e-01 4.685069709974805097e-01 7.586297614782367971e-01 -8.907253395147967101e-01 -8.778029739579961133e-01 -9.426873386996240667e-01 -4.173193881488466705e-01 4.440609201192351474e-01 1.253172753680330764e+00 3.320307470326123722e-01 1.929177537137606757e+00 -4.652401270507095510e-01 9.640568072807610411e-01 7.666839999070537148e-01 5.727245893724250969e-01 -8.471317675910666756e-01 1.380564755204831018e+00 4.157895816414259316e-01 1.099360608107168957e+00 7.661224709302122404e-01 -1.520134016528400300e+00 -1.340437544849680140e+00 -1.492710627943275581e+00 2.269204415662788230e-02 2.913574343208628556e-02 4.845141463821860811e-02 6.448784917931814631e-01 -1.716514892220489252e-01 -1.096020230603906631e+00 -1.755077843283010086e+00 3.057900659994432502e-01 -2.599200391485362305e-01 5.641360756625291017e-01 -1.056048314892534146e+00 -1.626814237714786227e-01 1.076814088401498865e-01 -9.203598770014034258e-01 5.392961317474150862e-01 -3.680225947213171950e-02 9.599666960336937782e-01 -1.116220361370631631e+00 6.923122637160435966e-01 -9.313672847653856612e-01 -1.358442467555840694e-01 -1.491420448270294630e+00 1.438007318341285368e+00 1.028181153865088682e+00 9.216171465511995287e-01 -1.249553668571346865e+00 4.401821535694959153e-01 9.658421814635389513e-01 -7.526735434024539595e-01 1.858362665353934240e-01 -1.027295665863146690e+00 -5.060353100623780076e-01 7.940436251285076796e-01 -1.721888498271765267e-01 -2.975291108593715594e-01 -7.067726633110611445e-01 -2.654257999132264567e-01 8.810662183600437292e-01 7.549577116397523380e-01 -8.455453968094219785e-01 -8.003351150842361594e-01 1.059476624131180822e+00 -5.554812274855887022e-01 6.636346909051712428e-01 -4.637355173563522670e-01 -6.961509210531512393e-01 1.196923182509327166e+00 -1.060125056402057231e+00 7.386641153392037307e-01 -1.624244162782319423e+00 4.310135989384669686e-01 5.627754477571055292e-01 2.114418850352299262e-01 -4.978283480931564031e-01 1.624760440339781731e+00 -7.344156241243097183e-01 -1.462741847018072805e-01 1.405215980132307196e-01 -1.781959757497608987e-01 1.810293830897739209e+00 6.622082427533779736e-01 1.015545723444805981e+00 -2.356416242102636963e-02 -4.208083754271153554e-01 -5.769334855953623942e-01 1.329966983470150632e+00 2.850258351525028488e-01 -8.441395174846193505e-01 8.063031602355387462e-02 -4.934075929522165893e-01 6.536891488345750734e-01 5.969238143267840968e-01 8.343610971333209614e-01 9.753161831753770494e-01 1.183043852276792096e+00 3.607062629607855619e-01 -1.087071248201001650e+00 -2.503149111646332803e-01 1.457781160168631684e+00 7.430082515996037085e-01 8.912544725891281550e-01 -2.626304963252133473e-01 -7.043861651594847118e-01 -7.298740271248005396e-01 1.105930291447944080e+00 2.500706563441207689e-02 -1.764686570811636157e+00 -2.663529397898246054e-01 5.216300804659234069e-01 5.125602562044490051e-01 1.284723791621779965e+00 1.130602085202410789e+00 7.977326442492593817e-01 9.487294316280924233e-01 6.273949888512306838e-01 5.183724924912981313e-01 1.253697258768589284e+00 2.171517914078011369e-01 -1.115760133866718906e+00 -2.265270627500849399e-01 1.074582884893701129e+00 -5.315694518884224173e-01 -3.208870707898177632e-01 -9.995884274655526536e-01 -9.283467525218261907e-01 -7.266647758936031209e-01 1.224587740590916018e+00 -1.731581557991052622e-01 4.636398723108462461e-01 7.390035009845474789e-01 1.334165081058917846e+00 1.506155955926310464e+00 3.785723460847602584e-01 -1.456410762070387444e+00 1.206104592657225305e-01 2.061189297204180537e+00 -6.968476900674555052e-01 1.710812184937364477e-02 3.736965056466550195e-01 6.936636356493214306e-01 6.349442625774299742e-01 -5.742163435499132440e-01 -6.911640089492972205e-03 -1.678359718153055180e-01 1.544439170941760420e+00 -9.938363549976507727e-01 4.239780316663560589e-01 1.102350287110242383e-01 -3.280234253141823264e-01 3.732799869000967830e-01 1.057398658384462342e+00 6.418996114242778717e-01 -1.820644578860049212e-01 2.674065779524145148e-01 6.519084026378699215e-02 -3.658788087282291990e-01 -4.281504182213851512e-02 -1.396686087579334101e+00 6.893961182694610113e-01 1.949684657647165364e+00 7.381216125273284412e-01 -1.500340634315412869e+00 -8.542758354255526321e-01 1.013715612063323501e+00 7.086146017680631237e-01 2.059439918468636055e+00 1.280738581392364683e-01 5.598880986683099081e-01 -1.333031224471064924e+00 -1.870729672581990244e-01 -9.082952315301077162e-01 -4.331306454564672892e-01 2.260051287652002083e-01 1.095006187433273492e+00 5.442295649010938652e-01 -3.164534601320090346e-01 -7.342814125281965643e-02 -1.847339316749033955e+00 4.941269876762103830e-01 1.550401559665640194e+00 -9.055786037053334403e-02 -3.378980563537286930e+00 9.268107753663085147e-02 3.988213278155878783e-01 3.322760302944744448e-01 1.287594171428308565e+00 -5.819738766493919302e-01 -4.512234998980126366e-01 -8.040909828927070846e-01 8.159699947004132037e-01 5.492977238715605059e-01 -1.214337265660184878e-01 9.055750041606099865e-01 1.251099930140360028e+00 -3.023249385604835471e+00 9.720462539045575667e-01 8.115420404700266488e-01 7.031422653472325646e-01 -1.187021863416760775e-01 4.981224823191209294e-01 -1.801030145441879338e+00 -3.317381554686720802e-01 2.174371838822947711e-01 4.188738772486559347e-01 8.226024129635095550e-01 -1.346846791339929295e-01 5.806888391831585006e-01 -2.876401330629992370e-01 -8.838589508446829113e-01 -2.304346256576109142e-01 -1.564819793165327377e+00 1.823493361398237644e-01 3.693909359368622303e-01 1.124883951299043172e+00 5.606069791716288275e-01 -4.526802870696169934e-01 1.086603821607641907e+00 -8.595712799342647426e-02 5.047991235602471427e-01 2.756366798520005212e-01 1.675528933338483295e+00 4.067881487296950427e-01 6.325197120959212826e-01 -1.236485264342913393e+00 9.529203301274128401e-01 -3.699272681006403052e-01 2.162328276399317240e+00 1.053916870195640509e+00 -1.891889853348498740e-01 -2.651548056176262214e-01 -1.180167301822166309e-01 2.160215343646715302e-01 8.815382729394762862e-01 -2.761226183896517972e-01 -1.780802760979391941e-01 -5.967839463032486025e-01 -6.580919062518980622e-01 5.580770134517937242e-01 -3.664773615936535722e-01 -5.764238929066720640e-01 5.031237926018684165e-02 -1.213046571766529080e+00 -5.955081648091609114e-01 1.432610058138970022e+00 8.390677589694290894e-01 2.775048435634153710e-01 7.824062970379404014e-01 -7.114654411889505259e-02 1.827019372565089173e+00 1.015077268410096822e+00 -1.373791954697524131e-01 -1.107667328887294578e-01 -2.154003557895574905e-01