8.909936935253038826e+01 -2.571071363760069062e+00 1.165513830666373352e+01 -2.571071363760069062e+00 1.312542222745040874e+02 6.537956142671899507e+00 1.165513830666373352e+01 6.537956142671899507e+00 1.151744674105446506e+02
2.134120916476476850e+02 -1.428553173140597821e+00 -1.604999642134646010e+01 -1.428553173140597821e+00 1.793310632621243030e+02 -6.719715164597054979e+00 -1.604999642134646010e+01 -6.719715164597054979e+00 1.964227443814458809e+02
1.434924775628510645e+02 -8.130640723937473169e+00 1.297381115959069220e+01 -8.130640723937473169e+00 1.394309777742120957e+02 1.066059407180684460e+01 1.297381115959069220e+01 1.066059407180684460e+01 1.394010764113244818e+02
8.255903302330709437e+01 1.614162847821018687e+01 3.423187574999066562e+00 1.614162847821018687e+01 8.318739601908616521e+01 3.825613957690179312e+00 3.423187574999066562e+00 3.825613957690179312e+00 9.063995139699943593e+01
1.478068710699256769e+02 1.810586544478901772e+01 3.064546732848347776e-01 1.810586544478901772e+01 1.436482892334390158e+02 -1.029860343019278446e+01 3.064546732848347776e-01 -1.029860343019278446e+01 1.380854166881096035e+02
2.423227421323710473e+02 -1.168611880108938017e+01 8.511462136414072788e+00 -1.168611880108938017e+01 2.119625860922953962e+02 -8.868559761605533609e+00 8.511462136414072788e+00 -8.868559761605533609e+00 2.264581877619913257e+02
1.603270893015114780e+02 1.746852217469279012e+01 4.685100087854529249e+00 1.746852217469279012e+01 1.398596846568105150e+02 -1.639201140996575035e+01 4.685100087854529249e+00 -1.639201140996575035e+01 1.424557524090908487e+02
1.036194884599312616e+02 -3.643557048659768594e+00 1.791265474631392607e+01 -3.643557048659768594e+00 7.374052865367316656e+01 1.192260769363357120e+01 1.791265474631392607e+01 1.192260769363357120e+01 5.623758862017856330e+01
1.389385545345877802e+02 2.425354116787600489e+01 -4.048005268463155559e+00 2.425354116787600489e+01 1.492993703519522626e+02 8.588891752232280297e+00 -4.048005268463155559e+00 8.588891752232280297e+00 1.352267811851008901e+02
1.270004360869915132e+02 3.158393241332362322e+01 5.024749530143716392e+00 3.158393241332362322e+01 1.325913503793257178e+02 3.212796065537489643e+00 5.024749530143716392e+00 3.212796065537489643e+00 1.533805308980872155e+02
1.909735807679643358e+02 2.833578670138588862e+01 -6.319352102472720389e+00 2.833578670138588862e+01 1.734065734727006429e+02 9.437278752298915663e+00 -6.319352102472720389e+00 9.437278752298915663e+00 1.663113473567590006e+02
2.238085559967333893e+02 1.787316840073534507e+01 -8.163725953149024051e+00 1.787316840073534507e+01 2.412315878430244709e+02 -3.754208657320902365e+00 -8.163725953149024051e+00 -3.754208657320902365e+00 2.289484554692900815e+02
1.115171702694328104e+02 1.919975480064925799e+00 -9.953004677304692294e+00 1.919975480064925799e+00 1.364713260528592684e+02 -6.960859934848816266e+00 -9.953004677304692294e+00 -6.960859934848816266e+00 1.288145040499954632e+02
1.604132931124078709e+02 1.203244482619530764e+01 2.001066279029012307e+01 1.203244482619530764e+01 1.804843823998430423e+02 -3.566966339749986048e+01 2.001066279029012307e+01 -3.566966339749986048e+01 1.367283909567304363e+02
1.584034451735243181e+02 -1.589783982241697835e+01 1.521343961895376218e+01 -1.589783982241697835e+01 1.202026124481522515e+02 1.154904017400629179e+01 1.521343961895376218e+01 1.154904017400629179e+01 1.269159619126274379e+02
1.811208818925206856e+02 3.082686353107298061e+01 -6.972688286087645793e+00 3.082686353107298061e+01 1.703808676710033581e+02 6.667851343357371618e-01 -6.972688286087645793e+00 6.667851343357371618e-01 1.712600651103331586e+02
1.497033568947944957e+02 3.378373170385067681e+01 6.613371837446001267e-02 3.378373170385067681e+01 1.736531859743978430e+02 -7.484560542655794180e+00 6.613371837446001267e-02 -7.484560542655794180e+00 1.774085907980323213e+02
1.575120085616871961e+02 -4.270090761523956502e+00 4.607146601943835407e+00 -4.270090761523956502e+00 1.748763054312911152e+02 1.631104010962630824e+01 4.607146601943835407e+00 1.631104010962630824e+01 1.628789510653096215e+02
1.449605409683839241e+02 8.747495533720140770e+00 1.122720044175577581e+00 8.747495533720140770e+00 1.256956041949120504e+02 -2.260586932518647174e+01 1.122720044175577581e+00 -2.260586932518647174e+01 1.349076678110078547e+02
5.723178640342315759e+01 2.492744477213172605e+00 -6.325115789198680893e+00 2.492744477213172605e+00 4.266607933409979836e+01 9.318560272591106752e+00 -6.325115789198680893e+00 9.318560272591106752e+00 5.155286393145017598e+01
1.180910515730369781e+02 -1.044885890660837369e+01 3.229024971725562665e+01 -1.044885890660837369e+01 1.210917835829408347e+02 1.407358087032992344e+01 3.229024971725562665e+01 1.407358087032992344e+01 1.161962610821417599e+02
1.036509246230908872e+02 6.995095626083238649e+00 -3.419921889225313039e-01 6.995095626083238649e+00 1.097406213889731106e+02 -3.048058347746094743e+00 -3.419921889225313039e-01 -3.048058347746094743e+00 1.111876840172166965e+02
3.608211743174651360e+02 -1.644945935244407309e+01 6.880805667286196137e-01 -1.644945935244407309e+01 3.687152412265422754e+02 2.421930863151585100e+01 6.880805667286196137e-01 2.421930863151585100e+01 3.321103298950865792e+02
1.553990240419993256e+02 2.525271828315666767e+01 -8.090760584090494589e+00 2.525271828315666767e+01 1.453763174665908195e+02 3.256836958937908033e+00 -8.090760584090494589e+00 3.256836958937908033e+00 1.565858026089352109e+02
2.579143855640895566e+01 6.654567101732764556e+00 -2.253762029433866498e+00 6.654567101732764556e+00 3.794796252757019062e+01 1.065813770007941486e+01 -2.253762029433866498e+00 1.065813770007941486e+01 2.549860604634939776e+01
2.505165732169079718e+02 -5.765788883475614135e+00 4.998010656044223232e+00 -5.765788883475614135e+00 1.976774066788330799e+02 -5.145834613753765829e+00 4.998010656044223232e+00 -5.145834613753765829e+00 2.191701170927776730e+02
1.652148207893700089e+02 1.917281322434673863e+00 1.033979004835900639e+01 1.917281322434673863e+00 1.807605655080549525e+02 -4.119249828824011672e+01 1.033979004835900639e+01 -4.119249828824011672e+01 1.379679201877005141e+02
1.520096822202013982e+02 6.208848896787400484e+00 5.174421377649553122e+00 6.208848896787400484e+00 1.192566748829137708e+02 -1.069013546565407369e+00 5.174421377649553122e+00 -1.069013546565407369e+00 1.559285177488861791e+02
1.209778678900274826e+02 1.269191045558684117e+01 5.870457184103560877e+00 1.269191045558684117e+01 1.183217882861670915e+02 1.064413178211566269e+01 5.870457184103560877e+00 1.064413178211566269e+01 1.371769521585108578e+02
3.193334490058261395e+02 1.270228399692171806e+01 1.035055038507912073e+01 1.270228399692171806e+01 2.839178956043034532e+02 5.333352520063851188e+00 1.035055038507912073e+01 5.333352520063851188e+00 2.960312285159105841e+02
6.542262112992675327e+01 1.766500638302985493e+01 1.075012348619924296e+01 1.766500638302985493e+01 5.861282326410817234e+01 3.405327057404386792e+00 1.075012348619924296e+01 3.405327057404386792e+00 4.956350417539446340e+01
2.421152415231611315e+02 2.761651932007997079e+00 5.832126755163720588e+00 2.761651932007997079e+00 1.839501061771208015e+02 -7.030247831012719217e-01 5.832126755163720588e+00 -7.030247831012719217e-01 2.092342359758244754e+02
1.432264619029623134e+02 1.859743429624830213e+01 -1.254634763684288856e+01 1.859743429624830213e+01 1.405043291249722301e+02 1.382683778278851028e+00 -1.254634763684288856e+01 1.382683778278851028e+00 1.352189373013574141e+02
2.874359407323728419e+02 -2.332289052461177903e+01 1.288702616438080817e+01 -2.332289052461177903e+01 2.274658866054907378e+02 -7.059506058120001981e+00 1.288702616438080817e+01 -7.059506058120001981e+00 2.542515959151658365e+02
2.949170162548430199e+02 -2.240060964278018929e+01 -1.838503402344190629e+00 -2.240060964278018929e+01 2.737934428268247871e+02 2.968572274761134278e+00 -1.838503402344190629e+00 2.968572274761134278e+00 3.122796728101391750e+02
3.227139207555464964e+02 4.130484568317052130e+00 1.617468515956924335e+01 4.130484568317052130e+00 2.806456304341369901e+02 -2.282745175305345953e+01 1.617468515956924335e+01 -2.282745175305345953e+01 2.730589452055716038e+02
9.778512380016744032e+01 2.055222204470133374e+00 -1.181433689088342565e+00 2.055222204470133374e+00 1.340223589670386559e+02 -2.002959465941604833e+01 -1.181433689088342565e+00 -2.002959465941604833e+01 1.022701751960705394e+02
8.136411749065756283e+01 7.714085280148837986e-01 8.813512221330602969e+00 7.714085280148837986e-01 6.889479000912675133e+01 -9.405934074277210399e+00 8.813512221330602969e+00 -9.405934074277210399e+00 7.775458588610690924e+01
2.343763150917628195e+02 6.758559314148333108e+00 3.488214740511474954e+00 6.758559314148333108e+00 1.933113541012923520e+02 5.917394932949805231e+00 3.488214740511474954e+00 5.917394932949805231e+00 1.999800530853756015e+02
1.899542970418521577e+02 -6.471775999852633632e+00 -2.005582107232004141e+00 -6.471775999852633632e+00 1.544221429302739352e+02 4.495879289906993037e+00 -2.005582107232004141e+00 4.495879289906993037e+00 1.657060979306509978e+02
1.613902436698784015e+02 2.060303490699572393e+01 -1.244935130405643520e+01 2.060303490699572393e+01 1.366679171860065765e+02 2.455175772037156534e+00 -1.244935130405643520e+01 2.455175772037156534e+00 1.303312858598626462e+02
3.085717857536989754e+02 -2.670856566929702414e-01 1.044721087932473580e+01 -2.670856566929702414e-01 2.520273324150432188e+02 -1.137427865953537065e+01 1.044721087932473580e+01 -1.137427865953537065e+01 2.983398124737933585e+02
1.519247275103782897e+02 2.323917298269432763e+01 5.923814031260387303e+00 2.323917298269432763e+01 1.332487625981509609e+02 2.721821282741586856e+00 5.923814031260387303e+00 2.721821282741586856e+00 1.377189799405428516e+02
2.036536736392643547e+02 -3.005006088791946084e+00 2.584456858970966220e+00 -3.005006088791946084e+00 1.982860056636046977e+02 1.672007983968853750e+01 2.584456858970966220e+00 1.672007983968853750e+01 2.183747282296236847e+02
1.920791055719317058e+02 -2.421867187916746289e+01 1.349729779241464733e+01 -2.421867187916746289e+01 2.135178503009610722e+02 2.649486110513899817e+01 1.349729779241464733e+01 2.649486110513899817e+01 2.082744072514456661e+02
4.199433313392136142e+02 -3.409329578518258685e+00 4.464897818916407246e+00 -3.409329578518258685e+00 4.131294093647956629e+02 1.392776369267822467e+01 4.464897818916407246e+00 1.392776369267822467e+01 4.223362911639837876e+02
1.336226808285543370e+02 7.892356684280841250e+00 1.549966120580542572e+01 7.892356684280841250e+00 1.522753440860914225e+02 -1.315143853372195082e+01 1.549966120580542572e+01 -1.315143853372195082e+01 1.222636301705839941e+02
1.829729107152364520e+02 -1.472985553524235769e+00 1.220668717009146498e+01 -1.472985553524235769e+00 1.630758870052777922e+02 2.031833991920110805e+01 1.220668717009146498e+01 2.031833991920110805e+01 1.412562048824036083e+02
1.449865041208808236e+02 1.822953782982738957e+01 1.765643015135924898e+01 1.822953782982738957e+01 1.219171087274287544e+02 3.779756698625070133e+00 1.765643015135924898e+01 3.779756698625070133e+00 1.682881109476607833e+02
1.204050096221034352e+02 -3.554237157849061912e+00 9.977640509380657718e+00 -3.554237157849061912e+00 1.207313029928955643e+02 -2.491839525594632843e+00 9.977640509380657718e+00 -2.491839525594632843e+00 1.230387931065322817e+02
1.452775948519827693e+02 2.192758923061923326e+01 3.541473448099359711e+00 2.192758923061923326e+01 1.236453293549305101e+02 1.333993600684585612e+00 3.541473448099359711e+00 1.333993600684585612e+00 1.294812776164708055e+02
2.853684615309811647e+02 -7.602667808156587270e+00 1.223075686572888010e+01 -7.602667808156587270e+00 2.385625601777999805e+02 -9.549823513351341830e+00 1.223075686572888010e+01 -9.549823513351341830e+00 2.511157523358769765e+02
2.909282620335785055e+02 -2.659108669323817509e+00 1.120403818312935051e+01 -2.659108669323817509e+00 2.229587369776283765e+02 -5.123579908516381565e+00 1.120403818312935051e+01 -5.123579908516381565e+00 2.278580392245403345e+02
9.769591077111476807e+01 6.154784923475325797e+00 -9.980622300142814041e+00 6.154784923475325797e+00 9.347871980391185787e+01 5.130718222219901037e+00 -9.980622300142814041e+00 5.130718222219901037e+00 1.170426233735989001e+02
1.364462507528261597e+02 -1.947611688296616572e+00 7.287932620992114252e+00 -1.947611688296616572e+00 1.103465018180310437e+02 -3.265289458801313049e+00 7.287932620992114252e+00 -3.265289458801313049e+00 9.882115927316102955e+01
1.916752198753739265e+02 -1.207085813552284215e+01 2.957613652091325918e+01 -1.207085813552284215e+01 2.037590434227810192e+02 1.781642607661947508e+01 2.957613652091325918e+01 1.781642607661947508e+01 1.975184045738528766e+02
2.639804862710548718e+02 -1.833504590420681035e+00 5.399642022074339742e+00 -1.833504590420681035e+00 2.198450008033965446e+02 7.894402246491321939e+00 5.399642022074339742e+00 7.894402246491321939e+00 2.035744265223392802e+02
1.834053461908702900e+02 4.414849761861241006e+01 -1.459501598572309211e+00 4.414849761861241006e+01 1.802360662375676270e+02 4.727431853043314369e+00 -1.459501598572309211e+00 4.727431853043314369e+00 1.867876879568779316e+02
1.669573494025144669e+02 -2.894567847847785647e+00 -1.182378017661854841e+01 -2.894567847847785647e+00 1.145486477187327523e+02 -3.527681390553353946e+00 -1.182378017661854841e+01 -3.527681390553353946e+00 1.492548733114348352e+02
1.064711742374360455e+02 6.130062907904727076e+00 -5.410542154257290015e+00 6.130062907904727076e+00 1.294963604910205675e+02 -1.521364967479771835e+01 -5.410542154257290015e+00 -1.521364967479771835e+01 1.393609310819502696e+02
9.269700844664754413e+01 2.207981825008971910e+01 3.280097867495393871e+01 2.207981825008971910e+01 9.626533592973660802e+01 7.649935670430961565e+00 3.280097867495393871e+01 7.649935670430961565e+00 1.035127610830422640e+02
2.107874722495665054e+01 1.663898550990105529e-01 -9.151067284014077430e+00 1.663898550990105529e-01 1.965476426682892352e+01 -1.299102753787631315e+01 -9.151067284014077430e+00 -1.299102753787631315e+01 8.093672469403914604e+00
8.728749590564814298e+01 -6.119984124535130521e-01 1.166109858514656317e+00 -6.119984124535130521e-01 7.934974550430698059e+01 -6.188089056665193155e+00 1.166109858514656317e+00 -6.188089056665193155e+00 9.146180001712123442e+01
4.846590149029041754e+02 2.052704786603085907e+01 7.057578546112686091e+00 2.052704786603085907e+01 4.472840603641570283e+02 -2.773162624967183376e+01 7.057578546112686091e+00 -2.773162624967183376e+01 4.645467545753542709e+02
1.465868778786579298e+02 -2.695563956371696435e+00 -4.975993370600839683e+00 -2.695563956371696435e+00 1.331164927882092002e+02 -1.414029804049819816e+01 -4.975993370600839683e+00 -1.414029804049819816e+01 1.370584572388086144e+02
2.108275452266141770e+02 -2.997109513105010237e+01 -5.494045314258610979e+00 -2.997109513105010237e+01 2.163193221590881024e+02 5.231812775722219477e+00 -5.494045314258610979e+00 5.231812775722219477e+00 1.967775449155164722e+02
8.680711725806852996e+01 2.790410261513407875e+01 9.171678615924948375e+00 2.790410261513407875e+01 7.905647641066580888e+01 3.067468083015292279e+00 9.171678615924948375e+00 3.067468083015292279e+00 7.089435404337321245e+01
1.267342062039200528e+02 1.501569693629228475e+01 1.441124581537986415e+01 1.501569693629228475e+01 1.450425562674160176e+02 3.129433808187103150e-01 1.441124581537986415e+01 3.129433808187103150e-01 1.060278088424483229e+02
1.428995933970477950e+02 -9.272135135115682658e+00 2.042114918502781862e+01 -9.272135135115682658e+00 1.521697970901544181e+02 1.935263346287094777e+01 2.042114918502781862e+01 1.935263346287094777e+01 1.196756575587621825e+02
7.437329958450051492e+01 1.676803853938654854e+01 -1.468743488391075758e+01 1.676803853938654854e+01 1.028042234942604551e+02 -3.364882172157697582e+00 -1.468743488391075758e+01 -3.364882172157697582e+00 6.522259008704496352e+01
7.230612251191040230e+01 -1.215192408316725725e+01 4.439152206187140792e-01 -1.215192408316725725e+01 9.368771880351090431e+01 6.817687237997859029e+00 4.439152206187140792e-01 6.817687237997859029e+00 7.677112021973000822e+01
1.677136510781831475e+02 -6.601427131950179827e+00 9.642658035345109013e+00 -6.601427131950179827e+00 1.624512087189989700e+02 3.793990292715707824e+01 9.642658035345109013e+00 3.793990292715707824e+01 1.497945684525903118e+02
2.208945863621098908e+02 -7.739266056633170798e+00 3.286282710860870537e+00 -7.739266056633170798e+00 2.474899126979098014e+02 1.552353193894524752e+00 3.286282710860870537e+00 1.552353193894524752e+00 2.042913201134095402e+02
1.047799162757992093e+02 -4.499369258212106537e+00 6.324286830041716101e+00 -4.499369258212106537e+00 1.259556836390117809e+02 -5.228864874709201693e+00 6.324286830041716101e+00 -5.228864874709201693e+00 9.076601363172434844e+01
1.039975832136610592e+02 6.157573739522796075e+00 -1.145359114236196696e+01 6.157573739522796075e+00 9.717325966576640894e+01 -1.855948775083407298e+01 -1.145359114236196696e+01 -1.855948775083407298e+01 8.752995511458820488e+01
1.959161426248477085e+02 -1.362018707060315670e+01 -1.868794976750979231e+01 -1.362018707060315670e+01 1.663760231102548062e+02 1.990777799611631149e+00 -1.868794976750979231e+01 1.990777799611631149e+00 1.636160226547255832e+02
3.054168648424009689e+02 -2.053381825349974488e+00 1.454439590991163200e+01 -2.053381825349974488e+00 2.653068902871595469e+02 -9.495694500933277382e+00 1.454439590991163200e+01 -9.495694500933277382e+00 2.918248780415029273e+02
1.382715088442802767e+02 1.788117710440470987e+01 3.324115541956673070e+01 1.788117710440470987e+01 1.150170375107641121e+02 1.483158726575318731e+01 3.324115541956673070e+01 1.483158726575318731e+01 1.426762849836314615e+02
7.604375080880419091e+01 1.976148323563559828e+01 -3.479848560343957509e+00 1.976148323563559828e+01 7.908690744819708129e+01 4.614176034038757201e+00 -3.479848560343957509e+00 4.614176034038757201e+00 4.776055543551953519e+01
1.765976330424930438e+02 1.930419592407939788e+01 -1.741611159273589138e+01 1.930419592407939788e+01 1.659930632655532463e+02 -2.411243372468693802e-01 -1.741611159273589138e+01 -2.411243372468693802e-01 1.755299211567485429e+02
1.637115330276382110e+02 -2.413223438836321932e+01 1.530335473257933998e+01 -2.413223438836321932e+01 1.739492734607762827e+02 1.790936103907828425e+01 1.530335473257933998e+01 1.790936103907828425e+01 1.740144089009212394e+02
4.757054831959958960e+02 8.355942727771411782e+00 5.035837190039064382e+00 8.355942727771411782e+00 4.498283422921061856e+02 2.256322063831169844e-01 5.035837190039064382e+00 2.256322063831169844e-01 4.543326869475124568e+02
1.548525579226391642e+02 1.044913876625510518e+01 4.369119634653542583e+00 1.044913876625510518e+01 1.505156134726530581e+02 1.907967922790265058e+00 4.369119634653542583e+00 1.907967922790265058e+00 1.469233121870011303e+02
1.347670086130557934e+02 1.245918626595087808e+01 5.486903631603197162e+00 1.245918626595087808e+01 1.434504718354289423e+02 -4.671572614700328252e+00 5.486903631603197162e+00 -4.671572614700328252e+00 1.538466833762576869e+02
3.234400773063525776e+02 -8.524399537043883868e+00 -1.175695982287906283e+01 -8.524399537043883868e+00 3.349139362633809469e+02 3.659334039954928564e+00 -1.175695982287906283e+01 3.659334039954928564e+00 3.401940826332686356e+02
1.277341927660485652e+02 4.377594359772904120e+00 -8.148790945416198639e+00 4.377594359772904120e+00 1.312088771242600274e+02 -1.159636031829159641e+01 -8.148790945416198639e+00 -1.159636031829159641e+01 1.266643093729680203e+02
3.722813440055553542e+02 -4.496802180897476298e+00 -9.122477271744870109e+00 -4.496802180897476298e+00 3.819229881911628581e+02 -1.431480034504861898e+01 -9.122477271744870109e+00 -1.431480034504861898e+01 3.935940906688807104e+02
2.062722604570525675e+02 -1.791341857970282803e+01 1.180888151385171625e+01 -1.791341857970282803e+01 1.847064884076614533e+02 1.161697654172921546e+01 1.180888151385171625e+01 1.161697654172921546e+01 1.850859306292970246e+02
2.925242220506201534e+02 -8.915485233634177220e+00 9.230335000269257462e-01 -8.915485233634177220e+00 2.201039278746277432e+02 -5.249403784553999586e+00 9.230335000269257462e-01 -5.249403784553999586e+00 2.450104060223931981e+02
7.689918125501539237e+01 -1.444221878820455274e+00 -1.064916302731556108e+01 -1.444221878820455274e+00 8.948702276945799383e+01 -6.345908486740852616e+00 -1.064916302731556108e+01 -6.345908486740852616e+00 7.190107274376831015e+01
4.672012399617115648e+02 -1.455643872404624728e-01 1.290347576443086730e+01 -1.455643872404624728e-01 4.453045856895274710e+02 -1.257968329244204142e+01 1.290347576443086730e+01 -1.257968329244204142e+01 4.329307035531151655e+02
4.767850968581116717e+02 1.849725253236776012e+01 1.370747855203190468e+01 1.849725253236776012e+01 4.667353428586404220e+02 -1.181746326595759022e+01 1.370747855203190468e+01 -1.181746326595759022e+01 4.792838861930670760e+02
1.264176718615884596e+02 1.911391990552397147e+01 1.060846431718087324e+01 1.911391990552397147e+01 1.164133298229974969e+02 1.488664434890940669e+01 1.060846431718087324e+01 1.488664434890940669e+01 1.036769419484737398e+02
1.543054907207237250e+02 5.098589777845899285e+00 8.400407741336552547e+00 5.098589777845899285e+00 1.454626229670298301e+02 1.459721557275734583e+01 8.400407741336552547e+00 1.459721557275734583e+01 1.635655479421424445e+02
1.343860051247040133e+02 2.376716335500935173e+01 6.145430314880585776e+00 2.376716335500935173e+01 1.249434449976576076e+02 -1.019307385820211964e+00 6.145430314880585776e+00 -1.019307385820211964e+00 1.251489721759030687e+02
9.329879428185347479e+01 -2.962669002715575761e+00 1.150436321151795127e+01 -2.962669002715575761e+00 1.014924988978603011e+02 1.665722193730967149e+01 1.150436321151795127e+01 1.665722193730967149e+01 9.531336798073692762e+01
1.309450795225455977e+02 2.112375740553619252e+01 1.437695611845535559e+01 2.112375740553619252e+01 8.975003470974249353e+01 -1.457701291172558866e+00 1.437695611845535559e+01 -1.457701291172558866e+00 1.076081911221960894e+02
1.908525114838172385e+02 -5.866801985671451725e+00 1.299740450503028377e+01 -5.866801985671451725e+00 1.989143908980439051e+02 2.574635301812230281e+01 1.299740450503028377e+01 2.574635301812230281e+01 1.875868376576138132e+02
1.462022852836674929e+02 1.845520783688323618e+01 1.832106653802150120e+01 1.845520783688323618e+01 1.426065950324363882e+02 6.545310536041789362e+00 1.832106653802150120e+01 6.545310536041789362e+00 1.372494891422932142e+02
1.687416320903576832e+02 9.950862277449139981e+00 1.587606451901046078e+01 9.950862277449139981e+00 1.712895716593332907e+02 -3.969501025853480769e+01 1.587606451901046078e+01 -3.969501025853480769e+01 1.603632592580244989e+02
1.010145136624413311e+02 1.004232875632463617e+01 -3.091380138039595238e+01 1.004232875632463617e+01 1.212816113933039617e+02 -1.400135147121321477e+00 -3.091380138039595238e+01 -1.400135147121321477e+00 1.108546779760771415e+02
2.213492909499118753e+02 1.787232760060657810e+01 -6.999390680245848984e+00 1.787232760060657810e+01 2.360463717928270171e+02 -1.516509871817340871e+00 -6.999390680245848984e+00 -1.516509871817340871e+00 1.860857938068130011e+02
8.605699853733887039e+01 1.116720574728404891e+01 -1.659668924601965401e+01 1.116720574728404891e+01 9.590950652813259580e+01 -5.601470064813399929e+00 -1.659668924601965401e+01 -5.601470064813399929e+00 9.931484604773837077e+01
1.504418229174344503e+02 -1.179070900008352574e+01 -1.450789516509698895e+00 -1.179070900008352574e+01 1.367896837696011403e+02 -1.115058303551736074e+01 -1.450789516509698895e+00 -1.115058303551736074e+01 1.394186991691026094e+02
1.506472285469512542e+02 2.624805090913619310e+01 4.024562658710845398e+00 2.624805090913619310e+01 1.298968935110658265e+02 1.386262151038817336e+01 4.024562658710845398e+00 1.386262151038817336e+01 1.424526723600261278e+02
3.600136920121315143e+02 -1.310419016367997180e+01 -1.471791785702794897e+01 -1.310419016367997180e+01 3.719023413488404799e+02 -6.535259498873644546e+00 -1.471791785702794897e+01 -6.535259498873644546e+00 3.879806050200719483e+02
1.666651054964567038e+02 2.637661510833294187e+01 -1.098373980612933209e+01 2.637661510833294187e+01 1.597676319439161432e+02 9.904757541301965063e+00 -1.098373980612933209e+01 9.904757541301965063e+00 1.445840539109302938e+02
1.588427564622012369e+02 7.822636941224008211e+00 1.124997175347541756e+01 7.822636941224008211e+00 1.781010181567856705e+02 -3.585239510136000263e+01 1.124997175347541756e+01 -3.585239510136000263e+01 1.445843679799704375e+02
1.780540676176095758e+02 9.731161715629641051e+00 -1.198835792879700257e+01 9.731161715629641051e+00 2.261620601224016696e+02 -1.973982105260435915e+01 -1.198835792879700257e+01 -1.973982105260435915e+01 1.738110901424496433e+02
1.223523574952940862e+02 1.601495004751600248e+01 3.678130800038684978e+00 1.601495004751600248e+01 1.257117204333147100e+02 -1.963759443005742256e+01 3.678130800038684978e+00 -1.963759443005742256e+01 1.171710016458176682e+02
1.669083129957218432e+02 -1.820001858277707640e+01 1.349805067045837603e+01 -1.820001858277707640e+01 1.772758280642728437e+02 2.246325002798329251e+01 1.349805067045837603e+01 2.246325002798329251e+01 1.724024366040321183e+02
1.255479027973349986e+02 2.576326974277523618e+01 -2.433986667508214907e+00 2.576326974277523618e+01 1.085971205152268340e+02 -2.302176427673860992e+00 -2.433986667508214907e+00 -2.302176427673860992e+00 1.360522373940735008e+02
1.502603189781175956e+02 -2.055353610655654606e+01 4.082471573693710609e-01 -2.055353610655654606e+01 1.605444159992430571e+02 2.187659901965550091e+01 4.082471573693710609e-01 2.187659901965550091e+01 1.434594994996843980e+02
1.338314791064662472e+02 -8.583594960668960994e-01 1.886886561620478986e+01 -8.583594960668960994e-01 1.350607909619897100e+02 1.227373530091164078e+01 1.886886561620478986e+01 1.227373530091164078e+01 1.112175311749851545e+02
9.585637657316925697e+01 9.988604301860107171e+00 -4.113009246517068007e+00 9.988604301860107171e+00 1.181705767668980087e+02 3.200637821577995812e+00 -4.113009246517068007e+00 3.200637821577995812e+00 1.090263407749369691e+02
2.145211205384698587e+02 -1.822712958415204554e+01 -2.235549634063852054e+01 -1.822712958415204554e+01 1.792725499879846041e+02 -1.327204862698686583e+01 -2.235549634063852054e+01 -1.327204862698686583e+01 2.181378120681616508e+02
1.596141702986219570e+02 1.717810780581281804e+01 -1.770521860493879274e+01 1.717810780581281804e+01 1.790330431474964996e+02 8.546626383586666265e+00 -1.770521860493879274e+01 8.546626383586666265e+00 1.716721547612113170e+02
2.139007311378558711e+02 -2.775566803658279369e+01 2.307316693167054122e+00 -2.775566803658279369e+01 2.138957093921399064e+02 7.522156221923782304e+00 2.307316693167054122e+00 7.522156221923782304e+00 1.812862015329858423e+02
9.548947186704008061e+01 6.883192407375889665e+00 -7.662167243050571619e-01 6.883192407375889665e+00 1.014052683676830782e+02 6.950497290008430973e+00 -7.662167243050571619e-01 6.950497290008430973e+00 9.036378236530218544e+01
1.232416642932980722e+02 -7.360383497443991452e+00 7.127490766741545691e+00 -7.360383497443991452e+00 1.015312806675076729e+02 -3.944506700786106990e+00 7.127490766741545691e+00 -3.944506700786106990e+00 1.037389047501738304e+02
3.707171158121344945e+01 5.353158342129503033e+00 -5.540000237768341051e+00 5.353158342129503033e+00 6.069818038081444378e+00 1.170995973701642079e+01 -5.540000237768341051e+00 1.170995973701642079e+01 1.222734595174678418e+01
1.418643471039532074e+02 9.113935109742330454e+00 2.904399243260349817e+00 9.113935109742330454e+00 1.376535159318423212e+02 -1.077713011422866529e+01 2.904399243260349817e+00 -1.077713011422866529e+01 1.348650605984958872e+02
1.083167742234771111e+02 1.384386861757667786e+00 -3.192632635558020571e+00 1.384386861757667786e+00 9.719195894843305439e+01 9.974881541624956327e+00 -3.192632635558020571e+00 9.974881541624956327e+00 9.143507050587354001e+01
2.238629375055699597e+02 -7.486349717388451452e+00 -2.349924166054393027e+01 -7.486349717388451452e+00 1.497090556910255543e+02 -6.700567552965909002e+00 -2.349924166054393027e+01 -6.700567552965909002e+00 2.045918706544496217e+02
1.560462916817181167e+02 2.131981769685082995e+01 1.271230768657398480e+00 2.131981769685082995e+01 1.362165292977834099e+02 1.930512917623675762e+01 1.271230768657398480e+00 1.930512917623675762e+01 1.448591855891042712e+02
1.741912071484695730e+02 1.915387650179352974e+01 -1.004606596675820107e+01 1.915387650179352974e+01 1.497698856947132811e+02 4.796737993383519694e+00 -1.004606596675820107e+01 4.796737993383519694e+00 1.463030426268762199e+02
1.476316316854488662e+02 1.234394590212800757e+01 2.098062385139535735e+01 1.234394590212800757e+01 1.635133905833831989e+02 -2.689392290402336627e+01 2.098062385139535735e+01 -2.689392290402336627e+01 1.214130181022012067e+02
2.174006696066949473e+02 7.636918386734301123e+00 -1.269557893221982248e+01 7.636918386734301123e+00 2.215291711059645934e+02 -1.244644341289342826e+01 -1.269557893221982248e+01 -1.244644341289342826e+01 1.840575447238352353e+02
4.925746700606921991e+02 1.970326149141602556e+01 6.322153203204837979e+00 1.970326149141602556e+01 4.601730214737241340e+02 -1.505299949734357945e+01 6.322153203204837979e+00 -1.505299949734357945e+01 4.941542918379242337e+02
4.808741009118662078e+02 8.642575233024403225e-01 -5.820545423696144915e+00 8.642575233024403225e-01 4.640420464517086998e+02 -4.545665617536881697e+00 -5.820545423696144915e+00 -4.545665617536881697e+00 4.695183723978266812e+02
2.790382614736262212e+02 -1.860043416029617802e+01 1.291500282841788660e+01 -1.860043416029617802e+01 2.089825985611930719e+02 -9.611550530677709370e-01 1.291500282841788660e+01 -9.611550530677709370e-01 2.461688779828679969e+02