1.752868000000000093e+00 2.676358000000000015e+00 9.939788000000000068e+00 1.392618799999999979e+01 1.346298799999999929e+01 3.104299999999999837e-01 1.534158799999999978e+01 1.167138800000000032e+01 1.531718799999999980e+01 8.579428000000000054e+00 1.182178799999999974e+01 5.812128000000000405e+00 1.306968799999999931e+01 1.226218800000000009e+01 3.998887999999999998e+00 4.905287999999999649e+00 3.795738000000000056e+00 9.326757999999999882e+00 3.272200000000000109e-02 7.121558000000000277e+00 6.207367999999999775e+00 1.386278800000000011e+01 2.374477999999999867e+00 1.535188800000000064e+01 1.033238799999999991e+01 8.573368000000000322e+00 4.656028000000000056e+00 2.107428000000000079e+00 2.275787999999999922e+00 3.317508000000000123e+00 9.913088000000000122e+00 1.399538800000000016e+01 5.380288000000000181e+00 3.578447999999999851e+00 1.333768799999999999e+01 4.792127999999999943e+00 1.111768799999999935e+01 5.040098000000000411e+00 2.159949999999999926e-01 5.699487999999999666e+00 1.047828799999999916e+01 1.163518799999999942e+01 1.235438800000000015e+01 9.088537999999999784e+00 1.092678800000000017e+01 1.322088800000000042e+01 5.341038000000000174e+00 1.427568800000000060e+01 1.516008800000000001e+01 1.356228800000000057e+01 9.472327999999999193e+00 3.537828000000000195e+00 1.412488800000000033e+01 9.514277999999999125e+00 2.104518000000000111e+00 4.482178000000000218e+00 1.322208799999999940e+01 1.458808800000000083e+01 1.372888000000000108e+00 1.337448799999999949e+01 5.839337999999999695e+00 9.752687999999999136e+00 7.047358000000000011e+00 4.043528000000000233e+00 7.642858000000000374e+00 1.485368800000000000e+01 1.288998800000000067e+01 1.437378799999999934e+01 5.612528000000000183e+00 3.332917999999999825e+00 9.780887999999999138e+00 7.389797999999999867e+00 2.475238000000000049e+00 1.234838799999999992e+01 3.890319999999999889e-01 1.522898799999999930e+01 8.186237999999999460e+00 2.049528000000000016e+00 1.515308800000000033e+01 1.151188800000000079e+01 5.064498000000000388e+00 1.413327999999999918e+00 6.397998000000000296e+00 1.747827999999999937e+00 1.266488799999999948e+01 7.483079999999999732e-01 1.177518799999999999e+01 4.973918000000000283e+00 5.950537999999999883e+00 7.917828000000000088e+00 2.587457999999999814e+00 2.580957999999999863e+00 1.460138800000000003e+01 9.874088000000000420e+00 6.166648000000000351e+00 1.196928800000000059e+01 9.748787999999999343e+00 6.329328000000000287e+00 8.291608000000000089e+00 7.538397999999999932e+00 1.329608799999999924e+01 1.015408799999999978e+01 3.805687999999999960e+00 5.687718000000000274e+00 6.188390000000000279e-01 9.710668000000000077e+00 8.202287999999999357e+00 6.619997999999999827e+00 7.609408000000000172e+00 1.039758800000000072e+01 7.150807999999999609e+00 2.327557999999999794e+00 1.345808800000000005e+01 2.670548000000000144e+00 2.185157999999999934e+00 6.570158000000000165e+00 7.563267999999999880e+00 1.216808799999999913e+01 1.122708800000000018e+01 2.257838000000000012e+00 2.825687999999999978e+00 2.244088000000000083e+00 6.268098000000000170e+00 1.539214199999999977e+01 1.452998799999999946e+01 2.243678000000000061e+00 3.826518000000000086e+00 1.177698799999999935e+01 1.036928799999999917e+01 2.716028000000000109e+00 1.290908800000000056e+01 1.341058800000000062e+01 6.737738000000000227e+00 1.331038799999999966e+01 1.434178799999999931e+01 1.244828799999999980e+01 2.918687999999999949e+00 2.015648000000000106e+00 7.122128000000000014e+00 1.306768800000000041e+01 4.282537999999999734e+00 1.508258799999999944e+01 1.038208799999999954e+01 9.077308000000000376e+00 7.657979999999999787e-01 1.237798800000000021e+01 6.906647999999999676e+00 5.997878000000000043e+00 8.734979999999999967e-01 1.501897999999999955e+00 7.813798000000000243e+00 1.969608000000000025e+00 1.319768799999999942e+01 1.024048799999999915e+01 5.403930000000000122e-01 3.942947999999999897e+00 4.073888000000000176e+00 7.035508000000000095e+00 1.141818800000000067e+01 8.218728000000000478e+00 1.101428800000000052e+01 1.061748799999999981e+01 1.387798800000000021e+01 8.097087999999999397e+00 8.999988000000000099e+00 9.281838000000000477e+00 4.581908000000000314e+00 9.762788000000000466e+00 4.140130000000000199e-01 9.001407999999999632e+00 4.359537999999999691e+00 1.472018000000000049e+00 3.024089999999999834e-01 1.311628800000000084e+01 9.188579999999999526e-01 4.495388000000000162e+00 8.564458000000000126e+00 6.713498000000000410e+00 1.098968799999999924e+01 1.512378799999999934e+01 7.871917999999999971e+00 1.218788799999999917e+01 1.933527999999999913e+00 5.806917999999999580e+00 6.899638000000000382e+00 9.740487999999999147e+00 2.392257999999999996e+00 7.087638000000000105e+00 1.294598799999999983e+01 1.392178799999999939e+01 1.381518000000000024e+00 6.148807999999999829e+00 6.601598000000000077e+00 6.903787999999999592e+00 1.200248799999999960e+01 1.525828800000000030e+01 1.306297999999999959e+00 4.040017999999999887e+00 1.136287999999999965e+00 1.337908799999999943e+01 1.223828800000000072e+01 1.244638800000000067e+01 5.976107999999999976e+00 8.081587999999999994e+00 1.211168799999999912e+01 3.868008000000000113e+00 4.621908000000000349e+00 1.209478799999999943e+01 7.365357999999999628e+00 1.249138800000000060e+01 6.137567999999999913e+00 3.457549999999999790e-01 1.352288800000000002e+01 3.930848000000000120e+00 4.055538000000000309e+00 1.155188799999999993e+01 9.311688000000000187e+00 1.318578800000000051e+01 3.601599999999999940e-02 1.705928000000000111e+00 4.615637999999999685e+00 3.464588000000000001e+00 1.594357999999999942e+00 1.836339999999999917e-01 9.343147999999999342e+00 1.136278800000000011e+01 1.281198000000000059e+00 9.475008000000000763e+00 1.019708800000000082e+01 9.260377999999999332e+00 2.282077999999999829e+00 4.264698000000000100e+00 1.476838000000000095e+00 4.594438000000000244e+00 4.443527999999999700e+00 2.939147999999999872e+00 6.796429999999999971e-01 1.058968800000000066e+01 2.515858000000000150e+00 5.236387999999999820e+00 1.262808799999999998e+01 3.121588000000000029e+00 7.898558000000000412e+00 5.525458000000000425e+00 1.490828800000000065e+01 4.702177999999999969e+00 5.466768000000000072e+00 2.676617999999999942e+00 1.289068800000000081e+01 1.428248800000000074e+01 1.292098799999999947e+01 1.130488800000000005e+01 1.704610000000000014e-01 5.761428000000000438e+00 1.363668799999999948e+01 8.639177999999999358e+00 6.676158000000000037e+00 1.385858799999999924e+01 1.165938799999999986e+01 1.410588800000000020e+01 1.239458800000000060e+01 6.752898000000000067e+00 1.779668000000000028e+00 9.577688000000000201e+00 1.221478800000000042e+01 7.274907999999999930e+00 4.585848000000000368e+00 1.407618800000000014e+01 9.721187999999999718e+00 1.195648000000000044e+00 9.890788000000000579e+00 7.273317999999999728e+00 5.624090000000000478e-01 5.989268000000000036e+00 1.472998800000000053e+01 8.850467999999999336e+00 7.229607999999999812e+00 4.089658000000000015e+00 4.089597999999999622e+00 1.993047999999999931e+00 1.026428800000000052e+01 9.221448000000000533e+00 2.900837999999999806e+00 1.202608799999999967e+01 6.098498000000000197e+00 9.594227999999999312e+00 1.282648799999999945e+01 1.123938799999999993e+01 1.178768799999999928e+01 1.376548799999999950e+01 1.476428800000000052e+01 1.305668799999999941e+01 1.106338799999999978e+01 1.060578800000000044e+01 8.637857999999999592e+00 2.309228000000000058e+00 3.787138000000000115e+00 5.661077999999999832e+00 9.498207999999999984e+00 1.378968799999999995e+01 9.776787999999999812e+00 2.933498000000000161e+00 1.494668799999999997e+01 8.557780000000000387e-01 3.707867999999999942e+00 6.046838000000000157e+00 8.864157999999999760e+00 1.915297999999999945e+00 1.023818799999999918e+01 1.093208800000000025e+01 1.497358799999999945e+01 7.132018000000000413e+00 1.383358800000000066e+01 5.345988000000000184e+00 5.820407999999999582e+00 1.162038800000000016e+01 1.548947999999999992e+00 6.013030000000000319e-01 4.331337999999999688e+00 3.470657999999999799e+00 1.276358800000000038e+01 1.212978799999999957e+01 1.332068800000000053e+01 1.350538799999999995e+01 1.390658799999999928e+01 1.101778799999999947e+01 9.592978000000000449e+00 1.169638800000000067e+01 8.559799999999999354e-02 1.242098799999999947e+01 9.323788000000000409e+00 1.244658000000000042e+00 3.300987999999999811e+00 1.088678799999999924e+01 7.081018000000000256e+00 1.189468800000000037e+01 1.047168800000000033e+01 7.165568000000000382e+00 4.752068000000000403e+00 1.378608000000000056e+00 5.864527999999999963e+00 3.012668000000000124e+00 1.056748000000000021e+00 1.375918799999999997e+01 2.119457999999999842e+00 8.477677999999999159e+00 1.359828800000000015e+01 1.106388800000000039e+01 6.910727999999999760e+00 1.538088800000000056e+01 1.409728000000000092e+00 7.125338000000000171e+00 9.096128000000000213e+00 7.201468000000000202e+00 2.445857999999999866e+00 1.385237999999999969e+00 1.373408799999999985e+01 1.524278799999999912e+01 1.523498799999999953e+01 3.660978000000000065e+00 9.815887999999999280e+00 8.388037999999999883e+00 1.359768000000000088e+00 6.142838000000000243e+00 6.634528000000000425e+00 8.416337999999999653e+00 4.426347999999999949e+00 4.551467999999999847e+00 1.049568799999999946e+01 9.911787999999999599e+00 4.203278000000000070e+00 9.310200000000000420e-02 1.473098799999999997e+01 6.063168000000000113e+00 6.350608000000000253e+00 4.855798000000000059e+00 1.413488800000000012e+01 9.318797999999999249e+00 1.946999999999999946e-03 1.292698799999999970e+01 8.175268000000000868e+00 6.951267999999999780e+00 5.271087999999999774e+00 4.434027999999999636e+00 1.155097999999999958e+00 3.826287999999999911e+00 9.605537999999999244e+00 1.252958000000000016e+00 1.167808800000000069e+01 1.589150000000000007e-01 1.439538800000000052e+01 1.989028000000000018e+00 4.994717999999999769e+00 1.520108800000000038e+01 1.311468799999999924e+01 1.234568800000000088e+01 3.744317999999999813e+00 2.107968000000000064e+00 4.878199999999999897e-02 1.215698800000000013e+01 4.684137999999999913e+00 1.487758799999999937e+01 1.913947999999999983e+00 1.442198800000000070e+01 1.269398799999999916e+01 5.980158000000000307e+00 1.452308799999999955e+01 1.396898799999999952e+01 1.317558799999999941e+01 1.086198800000000020e+01 1.478928000000000020e+00 8.843779999999999974e-01 6.840008000000000088e+00 1.349978800000000057e+01 3.111617999999999995e+00 1.741767999999999983e+00 3.660368000000000066e+00 3.260028000000000148e+00 1.288258800000000015e+01 1.008118799999999915e+01 7.687928000000000317e+00 1.462028000000000105e+00 1.048418799999999962e+01 2.959757999999999889e+00 1.530918800000000068e+01 9.435447999999999169e+00 1.003608799999999945e+01 1.101318000000000019e+00 1.027648800000000051e+01 8.678328000000000486e+00 2.637557999999999847e+00 1.428538799999999931e+01 1.417568799999999918e+01 1.380088800000000049e+01 1.022698800000000041e+01 1.316598800000000047e+01 8.241937999999999320e+00 1.011178800000000066e+01 9.293179999999999774e-01 1.340808000000000000e+00 9.473328000000000415e+00 1.189068800000000081e+01 1.420928800000000081e+01 6.419018000000000335e+00 1.073618800000000029e+01 1.346108800000000016e+01 1.165088800000000013e+01 4.620817999999999870e+00 6.597908000000000328e+00 1.854010000000000102e-01 7.516738000000000142e+00 1.198808799999999941e+01 9.539898000000000877e+00 1.084258799999999923e+01 1.511649999999999938e-01 8.329197999999999880e+00 3.321168000000000120e+00 1.067148800000000008e+01 9.812087999999999255e+00 7.304607999999999990e+00 2.838567999999999980e+00 3.560957999999999846e+00 3.199657999999999891e+00 7.472807999999999673e+00 1.387478800000000057e+01 1.269118800000000036e+01 6.724587999999999788e+00 1.367568799999999918e+01 8.758148000000000266e+00 1.104718800000000023e+01 7.011158000000000001e+00 3.747948000000000057e+00 6.720877999999999908e+00 7.592158000000000406e+00 4.246679999999999899e-01 7.043768000000000029e+00 1.250397999999999898e+00 3.979349999999999832e-01 4.127387999999999835e+00 7.261058000000000234e+00 9.435057999999999723e+00 1.142518800000000034e+01 1.088518799999999942e+01 7.085207999999999728e+00 1.124668800000000068e+01 9.844979999999999842e-01 5.867137999999999742e+00 2.888437999999999839e+00 9.523308000000000106e+00 2.116427999999999976e+00 1.304388800000000082e+01 6.729697999999999958e+00 1.201678800000000003e+01 3.567417999999999978e+00 3.206157999999999841e+00 9.313838000000000505e+00 7.508017999999999859e+00 7.597897999999999818e+00 2.625017999999999851e+00 1.252068799999999982e+01 1.708137999999999934e+00 5.918727999999999767e+00 1.114678800000000081e+01 6.884328000000000003e+00 3.986038000000000192e+00 1.868918000000000079e+00 6.026778000000000191e+00 7.050758000000000081e+00 7.202478000000000158e+00 1.059778799999999954e+01 1.329678799999999939e+01 1.344248800000000088e+01 4.727257999999999960e+00 1.339968799999999938e+01 1.197978799999999922e+01 1.163938800000000029e+01 7.621678000000000175e+00 7.231367999999999796e+00 1.297798799999999986e+01 2.507767999999999997e+00 1.334228799999999993e+01 3.975998000000000143e+00 1.340458800000000039e+01 4.284308000000000227e+00 4.974277999999999977e+00 1.252608799999999967e+01 6.390608000000000288e+00 5.545107999999999926e+00 8.095257999999999399e+00 1.363578799999999980e+01 1.453218799999999966e+01 3.389168000000000180e+00 1.284908800000000006e+01 1.479558800000000041e+01 1.293848799999999954e+01 4.460828000000000237e+00 7.607467999999999897e+00 5.327458000000000027e+00 9.598138000000000503e+00 1.248058799999999913e+01 9.542037999999999798e+00 9.115747999999999962e+00 3.493717999999999879e+00 8.980157999999999419e+00 7.210647999999999946e+00 1.510068799999999989e+01 2.352847999999999828e+00 9.363568000000000779e+00 8.314057999999999282e+00 1.379968799999999973e+01 2.229407999999999834e+00 7.149078000000000266e+00 1.456688800000000050e+01 5.385597999999999885e+00 1.453558800000000062e+01 1.090188799999999958e+01 1.034148800000000001e+01 1.732078000000000007e+00 7.571638000000000090e+00 6.612500000000000044e-01 1.324688800000000022e+01 4.685427999999999926e+00 4.640227999999999575e+00 8.325198000000000320e+00 1.114358799999999938e+01 1.333928000000000003e+00 4.744658000000000264e+00 3.038959999999999995e-01 7.779979999999999674e-01 1.307678800000000052e+01 2.397228000000000137e+00 4.164918000000000120e+00 1.446378799999999920e+01 4.561787999999999954e+00 7.392388000000000403e+00 1.011748799999999981e+01 1.489328800000000008e+01 1.283428800000000081e+01 1.500838800000000006e+01 9.715087999999999724e+00 1.491168799999999983e+01 6.310007999999999839e+00 1.167737999999999943e+00 4.534087999999999674e+00 5.068438000000000443e+00 1.169258800000000065e+01 2.510257999999999878e+00 8.619498000000000104e+00 1.394908799999999971e+01 8.586797999999999931e+00 1.562807999999999975e+00 7.726047999999999583e+00 1.201018799999999942e+01 4.632398000000000238e+00 9.649317999999999174e+00 5.457207999999999615e+00 1.080418799999999990e+01 1.421018800000000049e+01 1.446768800000000077e+01 1.613887999999999989e+00 1.125588800000000056e+01 6.523818000000000339e+00 8.527558000000000860e+00 4.346487999999999907e+00 1.448388800000000032e+01 4.725868000000000180e+00 1.038468800000000059e+01 1.390758800000000051e+01 1.508908800000000028e+01 5.462297999999999654e+00 2.045138000000000122e+00 1.614757999999999916e+00 5.430798000000000236e+00 9.804680000000000062e-01 4.598717999999999861e+00 6.995170000000000554e-01 1.022968799999999945e+01 5.048207999999999807e+00 9.398628000000000426e+00 2.962518000000000207e+00 4.755487999999999715e+00 1.481388800000000039e+01 1.018008799999999958e+01 8.967500000000000471e-02 1.476798800000000078e+01 2.560508000000000006e+00 1.437718800000000030e+01 4.216377999999999737e+00 1.222348799999999969e+01 5.275407999999999653e+00 1.195038800000000023e+01 1.209368800000000022e+01 3.450248000000000204e+00 1.068418800000000068e+01 6.313547999999999938e+00 1.037608000000000086e+00 9.575198000000000320e+00 1.279138799999999954e+01 5.694358000000000253e+00 7.104358000000000395e+00 1.405808799999999970e+01 9.011108000000000118e+00 1.354708800000000046e+01 3.491137999999999852e+00 9.634080000000000421e-01 1.255218799999999924e+01 1.099947999999999926e+00 1.043818800000000024e+01 4.498228000000000115e+00 8.942228000000000065e+00 1.455948799999999999e+01 9.210658000000000456e+00 5.168368000000000073e+00 8.336088000000000164e+00 2.900097999999999843e+00 5.011587999999999710e+00 1.192638799999999932e+01 6.698138000000000147e+00 9.754187999999999192e+00 1.469198800000000027e+01 6.826717999999999620e+00 1.447058799999999934e+01 4.830157999999999952e+00 2.019258000000000219e+00 3.521058000000000021e+00 2.665678000000000214e+00 8.914087999999999568e+00 3.367227999999999888e+00 9.931687999999999406e+00 4.828147999999999662e+00 1.151448800000000006e+01 1.140908800000000056e+01 2.758237999999999968e+00 7.496917999999999971e+00 1.163988799999999912e+01 7.105328000000000088e+00 1.047648799999999980e+01 1.130438799999999944e+01 1.504388800000000082e+01 1.193068799999999996e+01 6.282218000000000302e+00 9.095357999999999166e+00 1.256938800000000001e+01 1.416377999999999915e+00 4.655357999999999663e+00 9.219338000000000477e+00 7.532848000000000432e+00 2.913317999999999852e+00 2.458098000000000116e+00 1.070288799999999974e+01 6.776288000000000089e+00 2.855087999999999848e+00 1.272108799999999995e+01 6.438028000000000084e+00 1.202468799999999938e+01 1.439818799999999932e+01 1.602657999999999916e+00 5.661508000000000429e+00 8.406878000000000739e+00 1.342468799999999973e+01 1.404320000000000013e-01 5.608437999999999590e+00 1.047288799999999931e+01 1.857137999999999955e+00 2.586700000000000110e-02 7.791979999999999462e-01 4.490998000000000268e+00 1.304968799999999973e+01 5.209328000000000181e+00 6.458458000000000254e+00 1.240008800000000022e+01 1.216948799999999942e+01 8.502337999999999951e+00 3.928328000000000042e+00 1.263698800000000055e+01 8.532268000000000185e+00 1.211138799999999982e+01 1.439468800000000037e+01 1.169538799999999945e+01 3.915477999999999792e+00 1.192468799999999973e+01 1.039978799999999914e+01 1.078188800000000036e+01 7.814879999999999605e-01 1.426938799999999929e+01 1.003568800000000039e+01 1.145638800000000046e+01 3.188327999999999829e+00 5.880168000000000283e+00 5.011747999999999870e+00 1.146638000000000046e+00 1.310978800000000000e+01 1.039568799999999982e+01 1.454308799999999913e+01 4.299818000000000140e+00 1.370858800000000066e+01 1.307428000000000035e+00 1.227328800000000086e+01 1.306248800000000010e+01 1.164347999999999939e+00 1.490049999999999986e-01 6.905058000000000362e+00 1.318528799999999990e+01 2.837298000000000098e+00 1.146668000000000021e+00 1.652627999999999986e+00 3.615368000000000137e+00 2.909778000000000198e+00 1.086548799999999915e+01 6.804467999999999961e+00 5.869947999999999944e+00 7.288679999999999604e-01 8.849477999999999511e+00 2.289127999999999830e+00 1.223728799999999950e+01 1.231188799999999972e+01 1.331558000000000019e+00 7.121927999999999592e+00 6.612567999999999557e+00 4.359930000000000194e-01 7.867198000000000135e+00 5.044298000000000393e+00 1.369248800000000088e+01 6.633788000000000018e+00 8.630148000000000152e+00 4.485197999999999574e+00 4.309277999999999942e+00 1.253787999999999903e+00 1.265608800000000045e+01 1.317788799999999938e+01 2.477650000000000130e-01 1.736158000000000090e+00 2.740708000000000144e+00 6.374158000000000435e+00 1.150528800000000018e+01 1.774478000000000000e+00 1.976558000000000037e+00 9.533267999999999631e+00 5.616807999999999801e+00 1.310818800000000017e+01 8.222779999999999534e-01 1.105498799999999981e+01 9.573138000000000147e+00 4.317790000000000239e-01 9.020137999999999323e+00 2.985037999999999858e+00 1.493468799999999952e+01 9.439318000000000097e+00 8.259007999999999683e+00 1.011518799999999985e+01 9.249828000000000827e+00 6.036438000000000415e+00 2.534407999999999994e+00 6.202087999999999823e+00 9.382779999999999454e-01