-7.780926379087829264e+04
-7.780643438112805597e+04
-7.780240942509638262e+04
-7.779756965845498780e+04
-7.780758340779924765e+04
-7.780692857763973007e+04
-7.780273520927083155e+04
-7.780993917833028536e+04
-7.780219198292425426e+04
-7.780206278070330154e+04
-7.778441966976209369e+04
-7.779181877632935357e+04
-7.779803381728063687e+04
-7.779133357094750681e+04
-7.778710678740881849e+04
-7.781481611799878010e+04
-7.780360807720852608e+04
-7.780968391873988730e+04
-7.780687096922475030e+04
-7.779535051788922283e+04
-7.781012363869285036e+04
-7.780055090559402015e+04
-7.780927619462799339e+04
-7.779378524972157902e+04
-7.780338545124455413e+04
-7.780147913619340397e+04
-7.781085854295843455e+04
-7.780692571108504490e+04
-7.778776981197003624e+04
-7.780736855869383726e+04
-7.780945414229092421e+04
-7.780537427276835660e+04
-7.780615467541721591e+04
-7.780355045011366019e+04
-7.780580023270714446e+04
-7.778297104156365094e+04
-7.780163731553798425e+04
-7.780972602834175632e+04
-7.778323877400424681e+04
-7.779248800101820962e+04
-7.781510056227241876e+04
-7.780604625355348981e+04
-7.781379532029060647e+04
-7.780173951136571122e+04
-7.780980738158042368e+04
-7.779022257070646447e+04
-7.781000899050052976e+04
-7.780897486879132339e+04
-7.780366760214661190e+04
-7.779466415312059689e+04
-7.778655792033950274e+04
-7.780833133371673466e+04
-7.780482275051865145e+04
-7.778248603735821962e+04
-7.780812455376952130e+04
-7.780911443005665205e+04
-7.780197118684287125e+04
-7.779155406499395031e+04
-7.779503568064923456e+04
-7.779677935097750742e+04
-7.780720111479204206e+04
-7.780822777140141989e+04
-7.781439837447505852e+04
-7.779268569743481930e+04
-7.779559437497166800e+04
-7.780207292989022972e+04
-7.780271151835084311e+04
-7.780934943102917168e+04
-7.779662407477134548e+04
-7.780408821867969527e+04
-7.780932805259265297e+04
-7.779906387784298568e+04
-7.781928993169228488e+04
-7.780509708370323642e+04
-7.779126757934481429e+04
-7.779228154143954453e+04
-7.778919403868407244e+04
-7.780288351345768024e+04
-7.780767787901662814e+04
-7.782128319083768292e+04
-7.780106615508403047e+04
-7.780907088163154549e+04
-7.779054654279380338e+04
-7.781817166897798597e+04
-7.780809435726331139e+04
-7.781113511483697221e+04
-7.780808813865605043e+04
-7.780472088598764094e+04
-7.781897017900041828e+04
-7.781627229382302903e+04
-7.780542847820528550e+04
-7.779384699491235369e+04
-7.779906130596231378e+04
-7.779946540279888723e+04
-7.779971273051833850e+04
-7.780329053758193913e+04
-7.779699092697570450e+04
-7.778571669007099990e+04
-7.779972266770222632e+04
-7.779638649231944873e+04
-7.780454230866869329e+04
-7.779307227567919472e+04
-7.780183579644223209e+04
-7.780310381158668315e+04
-7.780071239777225128e+04
-7.779872020958318899e+04
-7.780748266466795758e+04
-7.781575570293710916e+04
-7.779540413394827920e+04
-7.780340282063533959e+04
-7.779136510786339932e+04
-7.779632965466393216e+04
-7.781110577187589661e+04
-7.779254583605464722e+04
-7.780177532510239689e+04
-7.780904184202659235e+04
-7.781069478271435946e+04
-7.780206188186669897e+04
-7.780075016205047723e+04
-7.779150600328161090e+04
-7.780821310252514377e+04
-7.779705346820405975e+04
-7.778054645039000025e+04
-7.779346006412887073e+04
-7.780422152857457695e+04
-7.780133852108271094e+04
-7.781285279489183449e+04
-7.780777792833054264e+04
-7.779901841753246845e+04
-7.781034792729353649e+04
-7.779159747727589274e+04
-7.779243297243940469e+04
-7.780030978261862765e+04
-7.780125611607149767e+04
-7.780997460857390251e+04
-7.780534061319232569e+04
-7.781181648094438424e+04
-7.780106460081361001e+04
-7.778858368972178141e+04
-7.778216859183642373e+04
-7.780788388726454286e+04
-7.780390105128232972e+04
-7.779543515108329302e+04
-7.780598326103303407e+04
-7.780196152648593124e+04
-7.780345885186351370e+04
-7.779974663208262064e+04
-7.781418999054476444e+04
-7.780153604354498384e+04
-7.780872640333848540e+04
-7.779566923079968547e+04
-7.780906203117931727e+04
-7.781039283859466377e+04
-7.781327669069141848e+04
-7.780133654305183154e+04
-7.780242838342658069e+04
-7.780062757634196896e+04
-7.780211922341558966e+04
-7.780077701660961611e+04
-7.780880842807191948e+04
-7.781237298030409147e+04
-7.779962499048918835e+04
-7.781540098830901843e+04
-7.780710175366586191e+04
-7.779182787884272693e+04
-7.779148656949879660e+04
-7.780135747450501367e+04
-7.778848777250082640e+04
-7.781099789591321314e+04
-7.779928000750242791e+04
-7.781059669600825873e+04
-7.780257937243526976e+04
-7.780649880809710885e+04
-7.780016401212739584e+04
-7.780267287691129604e+04
