2.934468671886284241e+00 -3.454255785453856031e+00 2.538718784161056785e+00 1.535297355785819162e+00 1.883972911839843611e+00 3.902817679139293450e+00 1.744307491250093767e+00 -7.199472541088332456e+00 1.918090425169036273e+00 2.734842035295089957e+00 3.917733164031476534e+00 -1.041647564895789024e+00 6.178205598416110611e+00 4.827263553622366921e+00 4.435070016083802358e+00 1.137658735522186770e+00 2.328477604401399503e+00 3.393715042751952904e+00 6.017527578393509380e+00 1.962407505582158596e+00 -3.255344429821257268e+00 -2.659490708718655227e+00 8.262600646231008650e-01 3.462147015928773275e+00 -3.465528531086015662e-01 -1.150943112434020810e+00 -4.150185591616859071e+00 -1.167370406110007863e+00 9.309579651082740881e+00 -4.819912769076625025e+00 1.067223872817164160e-01 2.265455232723089019e+00 4.130575271964087580e-01 3.641578663959990081e+00 4.727760310393651633e-01 -2.173591251838657090e+00 -5.769227898053272519e+00 1.864869613772388801e+00 9.563897770200406878e-01 2.920720467925813413e+00 4.204192132204545018e+00 -3.227083375756942818e+00 2.005978451796198936e+00 -1.680992528007843045e-01 -4.791971046051339556e-02 -1.195128038133728809e+00 5.462585768395746832e+00 9.886715225403286400e-02 6.917984029957526815e+00 5.073095488944413534e-01 -6.469691587905664676e+00 2.558566673765569455e+00 -2.098228098186703416e+00 1.460376431914161888e+00 -4.269250303534243285e-01 1.831999085579496755e+00 -5.835129391289582301e+00 -1.651259260151682007e+00 3.925235129455598493e+00 -1.514659109004195869e+00 -2.188912971063903257e+00 2.138691608863149352e+00 1.499016516077897432e+00 3.223939430551440388e+00 2.309837619161906108e+00 -9.094080050702955109e-01 2.404063929826200929e-01 -7.697580111007884529e-01 -9.089770881448440143e-01 2.634969067401220055e+00 -2.611278406694201415e+00 3.104866491103260184e+00 -2.114046554583770998e+00 -5.129798602750558212e-01 -1.963531077756516252e-01 5.243991587995234793e-01 -1.505291550972033487e+00 -1.484499552208655704e+00 6.359649906168350908e-01 -5.917540453509841925e+00 -5.460350451122550908e+00 4.183274663596525222e+00 -2.710823301797572693e+00 -6.267578694351988444e-02 -2.930959115781024860e+00 9.585752148877845213e-01 -5.039468542138944684e+00 -3.888892069046030464e+00 1.160983271108773307e+00 1.600720109573924299e+00 2.800416484182250088e+00 -8.984016257476626910e-01 -2.083956931799998635e+00 2.218204523360443048e+00 -1.798702268447226249e+00 -2.500193885428468654e+00 4.500453689100624821e+00 2.538326948006887740e+00 -2.211083081235646119e+00 4.705134600704067860e-01 -2.846822843196934905e+00 -6.358400864149349907e+00 -1.515764683454936756e+00 -3.586987454465098146e+00 3.849832380811688104e+00 9.911984029361151638e-01 -1.725644366080236081e+00 -7.341235467810440785e-01 -3.420129016152517298e+00 -1.072597478868440313e-01 -2.338685913236799585e-01 -4.240522851317918729e+00 -2.396778965526829452e+00 -2.484654650857797353e+00 1.512791973734130435e+00 -1.589664365066514318e+00 -2.442846453116845618e-01 -5.306458087124126699e+00 -3.663921038057778468e+00 6.799539982394580892e-03 1.125016620233131981e+00 -2.186929107700666675e-01 1.730100602447734170e-01 -1.365266690130624294e+00 1.768709833370984086e+00 5.372941678164267820e+00 2.241145450323656085e+00 -3.762542392829274718e+00 2.137016792125445264e+00 2.227114424992065356e+00 -1.589811946400171427e+00 2.374059667674438767e+00 2.946544115991749369e+00 4.202540455397206109e+00 -3.343977047985477284e-03 -3.332257958807622322e-01 5.133120468309528839e-01 1.863800548989555494e+00 -2.215320259595695784e+00 5.930253531252014376e+00 -5.146105568788649443e+00 -1.175397905063737092e+00 5.028959414208808099e+00 3.846665809896495425e+00 -2.538096062923918872e+00 5.027546335794558452e+00 5.310749258655024896e+00 3.933899747825359228e+00 -1.915370712020213473e+00 -6.291376827180032993e-01 -4.959915518429019454e-01 2.303388777679700183e+00 4.036839527823516960e+00 3.006641600472006459e+00 -1.731381011927894953e+00 4.317272858129708624e+00 1.932916435663810883e+00 4.265727891912115544e-01 -8.825096357941041303e-01 -6.929764825616351764e+00 3.171211242561216004e+00 -1.682214316331080317e+00 -9.013403969039347485e-01 -2.418790181510070969e+00 -9.673570755713913893e-01 5.986778210484016149e-01 3.094735829589749354e+00 -1.385788723039750869e-01 8.477195218223210205e-01 2.460381892346947375e+00 1.228543640241869461e+00 5.019291551302583976e+00 3.754892846071496315e+00 2.199926549475982540e+00 3.260354481855475273e-01 2.468717923705534556e+00 -6.421864951387282971e+00 2.187224270367980505e+00 3.309555116016824061e-01 4.245003256057130692e+00 -4.150766660979341438e+00 1.322134374152156511e+00 -3.428257816579175277e+00 2.755974448145160682e+00 2.954527391967449290e+00 3.306310383559067922e-01 -3.513333570336057310e+00 6.183112806315376186e-01 -9.798464673200414365e-01 -2.857796826617057917e+00 -1.902111017700768292e+00 -1.947129495114267028e+00 -7.193587285465666281e-02 4.561373926660503564e-01 -6.353371271729491010e-01 -5.227567379643296985e-02 -4.145397682914137683e+00 2.902893979793795820e-01 -1.522631072125050666e+00 -2.174245340536955950e+00 -1.768789023354897738e+00 1.393870215164330295e+00 -1.181805094671287470e+00 2.616225723806099079e+00 3.084856107765522548e+00 -1.812116743189775114e+00 4.339929935280453788e-01 2.439565725211855982e-02 -1.933007966943918410e+00 3.730465821358217138e+00 3.469482888074945648e-01 8.803488805187488220e-01 -2.158072071874301834e+00 -4.406312224847666492e+00 -1.476147580009151139e-01 4.167098309609822415e+00 -4.422436642546218266e+00 1.311874129028605340e+00 1.152566507104248572e+00 -2.343880570493258375e+00 -2.650169944767896690e-01 1.097555693538749821e+00 -7.153879164960448289e-01 -1.913342625678947195e+00 4.066960518068449382e+00 -2.685460909676899433e-01 -1.466674092517987305e+00 -2.410203724682873361e-01 2.606790288644867948e-01 1.577357007436730463e+00 -2.613156340598437044e-01 -4.140698734388150726e+00 2.114504725204985114e+00 -7.810688090628812308e-01 4.507273797910009705e+00 4.241162027616649510e+00 7.406088979311584275e+00 -1.932791480039843135e+00 -4.597449592319193812e+00 -3.378137755851349677e+00 1.672650326001158705e+00 -1.776272476834727332e+00 -1.396317905576203611e+00 6.653700828383622756e+00 3.782449932032059259e+00 1.548267029644698201e-01 -2.821898567091159826e+00 -3.783483515588334178e+00 -6.600644567602900192e-01 -7.116927267271959678e-01 7.797513756941377716e-01 9.620086663331789412e-01 1.296054644190188565e+00 -4.510032077609440471e+00 -4.249941317196883062e-01 7.189926034261352461e-01 -3.533534215323457239e-01 -1.299710753187755197e+00 -2.507847031730970233e+00 -3.203111436340829177e-01 1.986815504130470922e+00 -7.194739139777135861e+00 -1.824365479662635847e+00 -2.129758053080487379e+00 -4.336360729576920647e+00 3.038820501857342204e+00 5.529312071594376654e-01 -1.613801369319227019e+00 1.242511673540801631e+01 -5.571476110042264729e+00 2.513446894879141968e+00 2.002774342771748817e+00 5.491495768951612177e+00 -1.082814015234636607e+00 3.026577421811903701e+00 2.575883569208897050e+00 -1.241820818064256926e+00 2.028875155781382222e+00 -3.611371798862371418e-02 3.222861109796462120e+00 3.164528430671992965e+00 2.290111599857312275e+00 4.103243928879745539e+00 -1.776300758971839366e+00 2.240887825765599306e+00 4.031109566844630621e-01 -2.741762931356728217e-01 -2.703088394407783812e-01 -2.623276717698452831e+00 -3.873562636510663015e+00 -6.644965247560745414e-02 1.551200144373547696e+00 3.176068056834354891e+00 9.051502578832556489e-01 4.530577250448931670e-01 3.983050502581255703e-01 1.211675659447610354e+00 -2.707828480587751052e+00 -2.692410602096324101e+00 3.256875778990701686e+00 -5.229017481946128809e-01 3.951935009551331146e-01 1.310150975547473617e+00 -6.928408825697001117e-01 3.366596587026962517e+00 2.658252465333825754e+00 7.866390531001866471e+00 1.521944587524241665e+00 -1.089844954520674758e+00 -1.664299382243003445e+00 2.149390998442948786e-01 -5.698454678144256880e-01 -7.527084589862703901e+00 -1.210018326212848550e+00 -3.656160933854927020e+00 1.612314243127811464e+00 -3.610096531588958824e-01 1.101149067613995225e+00 3.477120607757204329e+00 -1.622655220897300854e+00 -1.751692728581043940e-02 1.092996613036298637e-01 2.990902848279527682e+00 -1.506295309729171583e+00 7.393140902721044849e-01 -8.113173260351551619e-01 -1.130469930488996466e+00 -1.027531178932188233e-01 -2.522901870426013993e+00 1.253512653546349220e+00 -3.563817185080940586e+00 -1.186399142179622501e+00 -2.619446802112815664e+00 4.025345153080533422e-01 9.166986257970890506e-01 -5.892886657478992873e-01 -7.096091045530552588e-01 1.326991188425295620e+00 1.556214824393838958e+00 5.595795662634519552e-01 -1.278638504156631495e+00 1.557219097371651539e+00 -1.055633338808000254e-01 2.248940521532392101e+00 -1.556741386364796920e-01 -3.421320979676618634e-01 1.470211416539684013e+00 1.415373381120905716e+00 -2.930105509460917634e+00 1.989785128527229219e+00 6.294832390114442344e-02 2.286590216676534226e-01 1.719181126419136341e+00 -1.237847434910361033e-01 -2.257946068209521151e+00 -2.788346182283532038e-01 3.150311257456138159e-01 -6.540974400503370978e-01 2.349331309645748433e+00 -1.941216985795839234e+00 -3.563338445632736051e-01 -1.308195908542023611e+00 -1.884412570516766250e+00 -1.907496965048238291e+00 -1.619053619291259016e+00 -1.218327618096348014e-01 3.851523138390309686e+00 -7.674810419529367600e-01 -5.247191069033611655e+00 2.628215807279554284e+00 7.035844951275289638e-01 3.370212586811898170e-01 3.609242925268851820e-01 -3.248059465521885847e-01 1.014022087585482401e+00 1.202398604254206305e+00 -1.186567292340269919e+00 -1.694130866248044320e+00 4.630891419681748555e-01 6.195659790779598497e-01 1.363075595835457621e-01 5.274783122000059610e-01 -2.389001377821035277e+00 -3.774996817572041086e-01 -7.434931616959055134e-01 -2.152297887917385300e+00 3.499025894281444504e+00 3.045758881421922304e+00 -3.808955950933406442e-01 -1.097705845975780692e+00 5.335315122950491151e+00 3.091983206317742150e-01 -4.147311098044932365e+00 3.300226124535269090e+00 8.485911258660449041e-01 -3.773515862028722911e-01 -5.511485069241684798e+00 -3.381350606627270827e-01 -3.544670178256130288e+00 1.547830456291824142e+00 1.829931404246273596e-01 -9.079105944653849125e-01 8.862963568430607397e-01 1.557684981302987381e+00 1.862734055310096615e+00 -1.030897781689863013e+00 -4.297465591958503417e+00 9.706357465936820139e-01 1.463885988019421269e+00 3.207857693168894020e-01 1.553375297827796375e+00 2.738558822332278098e+00 2.559261900117849819e+00 -1.334014928621886975e+00 1.674328742283585925e+01 -5.449546674745775476e+00 5.486103136735370533e+00 -3.156768326469140185e+00 4.995243507226605040e+00 -8.703400893051568277e-01 -3.172860348265182040e+00 -1.493758609678442983e+00 1.565776243620387032e-01 -3.459116199271718095e+00 2.061866011612168759e+00 -1.499028343153417042e+00 -1.249852945004058968e+00 3.287697652015336924e+00 -4.599565096175169954e-01 -3.132495053737615276e+00 -1.000318106603041546e+00 -4.599207712806210324e+00 -6.867677821345435696e+00 -2.100751893258441250e+00 3.409326268217090838e+00 -1.930898633736039816e-01 2.475934496655161965e+00 -2.207987986994246477e+00 1.736741248241626900e+00 7.650631763401999352e-01 -5.607113659686058238e-01 -2.857876530821645833e+00 -1.636771092640227021e+00 3.938447001252290303e+00 -5.191242831178018990e-01 -1.374187390396417241e+00 -1.347355355587270154e+00 1.935289049857168209e+00 2.152994656931689565e+00 -1.668715509397870056e+00 1.342158127227437880e+00 -1.700384303873840430e+00 3.112549976425572851e+00 1.998082079114534171e+00 8.103588186973964547e-01 6.606645522877387933e-01 -2.416858254434985032e+00 -1.785869377287834014e+00 -4.538100298920718090e-01 2.541516658852443822e+00 -8.983589454316573408e-02 3.253098828134565745e-01 -2.605817383128215869e+00 -2.562464466480275149e+00 3.442285756586717094e-01 9.775335027249562603e-02 -1.779831912345438694e+00 -2.032960639042376449e+00 -1.601040469054301862e+00 6.803386353041810386e-01 -1.731898317926706676e+00 -1.216471795681127288e+00 -1.151708787018743241e+00 -1.103508826290483968e+00 -4.353562439589102162e+00 5.139888640830762689e+00 1.098269431835321219e+00 -1.501823132520755388e+00 -4.711958309058175698e-01 1.309565278198918215e+00 2.629151174686948700e+00 5.770183320066983867e-01 1.858293245562841145e+00 1.902846353265679635e+00 1.554787862021370870e+00 4.502488460310663854e+00 2.208646189457943443e+00 -8.786390967751610548e-01 1.963325389486610673e-01 -2.274021634943970582e+00 -2.617812094587744109e+00 -2.005811330076900934e+00 5.061746638652387942e-01 1.365986599075292629e+00 1.302029374210262880e+00 -1.072424186501044874e+00 -1.835798662145322169e+00 2.138094598659749490e+00 5.341267227260876105e+00 -7.028085361293111566e-01 4.073229382314488833e-01 3.937968776024760587e+00 -2.989639922302309127e+00 1.827344874252214424e-01 1.249032763027811743e+00 -6.085590855346524330e-01 -6.531358473885297000e-01 -4.074272221842908159e+00 -2.039484042522423213e+00 1.983526548694685365e+00 -2.576379277939368495e-01 -1.151682561764330481e+00 -3.528597696845729992e-01 -9.717989137599963856e-01 -1.125315896665844306e+00 -7.479925926000841052e-01 -1.949246027411592752e-01 -1.475595307004455403e+00 1.038523674296602195e+00 -5.998343033459442308e-01 6.005048471058354043e-01 6.041038776085034812e-01 1.340942509552297546e+00 1.927729491717473875e+00 9.662509868999755724e-01 2.641105776933844407e+00 -9.144468534623005906e-01 2.159012067267769286e-01 2.204997793770497871e+00 -1.607106730354484370e+00 2.215909556488974363e+00 -3.413574245211310032e+00 6.489979136187097597e-02 -4.179473030148000312e+00 -1.287226503645852782e+00 3.524790406969782186e+00 1.422854263497361549e+00 -5.910431866901915132e-01 -3.461773691718894597e+00 3.462545022731039701e+00 1.872762386909329946e+00 4.503740073433036839e-01 3.705373395091795086e+00 -5.457796317031001543e+00 -1.511699254800258574e+00 -7.739343057329457487e+00 -1.316853327822337993e+00 -2.300038115762942592e+00 -1.270674254345898202e+00 -2.073912145139172658e+00 7.335255081362944685e-01 2.736155354898434755e+00 -1.678302639658156625e+00 -2.110937576384152026e-01 -9.415144013404890266e-01 2.468849049977599019e+00 2.122767223007080872e+00 2.246685149652880131e+00 -1.061954139342190073e+00 9.822077686585543865e-02 1.354858349452741084e-01 4.919029832578593053e-01 3.112366913865357021e-01 -4.023208051956218334e+00 -1.671101493328771781e+00 -1.278762945559924535e+00 -8.823594833570731488e-01 -1.321625295684140777e+00 -2.029675283151314069e+00 -2.733926208273336211e-01 3.096500634945536845e+00 -5.999666123255606998e+00 3.690621432374186384e+00 1.822896865415512269e-01 -1.453111522221106400e+00 1.788154059745807434e+00 -2.518930029934142389e+00 3.843826283330452842e+00 -7.019153348172473272e-01 -1.782042032805571385e-01 2.653004843347866348e+00 4.968842389342909449e+00 8.993709317195913711e-01 5.802841475121197634e-01 -5.170623096340688285e+00 -3.775228216875683995e-01 8.801195380978044103e-02 1.010521273231694384e+00 9.400828109819482359e-01 -9.552656906250081903e+00 4.012581681712235948e+00 1.836602389059977414e+00 -4.957403550432801786e+00 4.699365044733223584e+00 -6.803859436062592581e-01 -4.302360972782249826e-01 -2.358199559402715639e+00 -2.918181760454507390e-01 -2.215021497383657945e+00 -4.219481455527280822e+00 -3.041507304882979934e-01 -1.133308942834364563e+00 -1.172974383023577927e+00 -5.499841056282344987e+00 -2.177617599722053487e+00 3.068761000645432446e-01 2.799387014391373718e+00 1.171009031604632877e-01 -2.037794827605826087e-01 -2.179087756631201689e+00 2.311021355155211232e+00 -1.275960442882464463e+00 2.850717036366916979e+00 -1.840554174945532750e+00 -1.639408016260412992e+00 -1.994523672045172225e+00 1.735703036699280055e+00 -7.685465071910463353e-01 -2.065274780465174764e+00 1.437793402540583854e+00 5.438505842637932908e-01 1.675824610226472444e+00 2.915360231612081243e+00 -4.062183922220573562e-01 -1.145227549634027397e+00 -3.285191854667215861e+00 -1.542347321236823499e+00 -5.116965197370491936e+00 3.447001160174296142e-01 1.732623883298797685e+00 -2.975718940195117845e+00 -3.567499005112245047e+00 -5.522949619185530956e+00 4.084860025536284134e+00 -4.966022403162508425e+00 -1.928329587244922205e+00 -1.465887334885599635e+00 -6.187202917562443005e+00 8.219498669272350400e-01 2.157636526962777523e+00 6.673936440376907475e-01 1.495923478719196398e+00 -1.669525406960622238e+00 -4.725320333291898933e+00 1.958361617313120862e+00 -1.836160159279680792e+00 -3.315844034869178669e-01 -1.791927925277895017e+00 2.505877566546626856e+00 6.841027306434480648e-01 1.252798401029103115e+00 -1.474054187642189762e+00 -2.176121731779167234e+00 2.998138447394121275e+00 -2.670245634131328316e+00 -1.957357344335308280e+00 4.473096634982544728e+00 -6.134554947997481467e-01 -2.366160723889400685e+00 -3.113378385932616510e+00 -1.229286689116902531e+00 -2.941315520170756592e+00 7.761852553146543487e-02 3.740801142700284770e-02 2.470576831444804000e+00 1.286920028123693882e+00 -4.518179389980389038e-01 -3.821614521284053989e+00 2.766075284859534911e-01 -3.188363587388619025e-01 1.332637845654870867e+00 -1.987193970547096900e+00 6.844873677081709795e-01 -1.134205229470476750e+00 1.018768344413547355e+00 1.492636065945434964e+00 -9.030692068124887006e-01 1.681779285640230825e-01 1.867713254103829046e+00 1.468640986598956921e+00 1.320055379964088837e+00 4.067228427040001093e-02 1.254799233674606773e+00 -1.898913079324415332e+00 -1.830382375778040860e+00 2.628809217938230525e-01 -1.476585696024049321e+00 -3.172193918270687973e+00 9.998095423557008532e-01 -1.985905333536140294e+00 1.769829806000618344e+00 1.125618772643279808e+00 3.155474033030761238e-01 -3.576622822544570202e+00 2.341875624082356389e+00 -3.832247062176133312e+00 1.259857108231578371e+00 1.674067518180806458e+00 1.248243434292050091e+00 3.301359981123122012e+00 4.078758797230218391e+00 2.014710947295028642e+00 1.391054342749326933e+00 -1.151558120361037663e+00 -2.282091814213704772e+00 -2.960766431414351807e+00 2.214418830752835632e+00 -8.387114040418182093e-01 1.099313814025765446e+00 2.695590542749060070e+00 -2.479081527184713085e+00 1.482454496585122516e+00 -1.861050496820921829e+00 1.651633098582234727e+00 -6.158301658758048580e-01 1.072897269521827068e+00 2.517711841155628072e+00 5.482620834325872827e-02 -1.616535994867617898e+00 6.886885506209867724e-01 -1.610606516266922750e+00 -3.040490690608973257e+00 -2.272330877365348889e-01 4.049571117509980667e+00 2.617500991079511952e+00 -1.193214623002934571e+00 3.394449864096189540e+00 5.953920537807992908e+00 -7.853147291744013714e-01 3.812081384194617506e+00 1.612993014418499182e+00 1.018685554884910527e+00 2.114341717251084773e-01 2.286884350902498753e+00 -7.128177901415105211e+00 4.377279839771207826e+00 2.110024320465772263e+00 5.418092310291180880e+00 -1.747008692454625312e+00 1.983503408764321296e+00 -1.272656060826435676e+00 2.740470694801048435e+00 -3.728539550710554540e+00 2.907804787237784905e-01 -1.328189733974033970e+01 -4.251800224936151729e+00 3.077386024023236910e+00 -8.499723225984587849e-01 2.416127032635471572e+00 -2.829597993254390431e+00 2.818120073572999651e+00 1.142105201696864913e+00 2.153916140380865082e-02 -1.726964884773028119e+00 2.364151663713100593e+00 3.108322054037669258e+00 4.231417031609210788e+00 -2.149740668501787244e-01 4.964473570490121723e+00 -4.775956157356512577e+00 -6.479386190286975933e-02 -1.716021754593391124e+00 -1.990661360557025583e-01 2.269887814939548498e+00 -2.056869329315494266e+00 -1.713347292863947491e+00 -4.284805478945832302e-01 -3.688528554227899381e+00 -1.915091490193816970e+00 1.588084679153641599e+00 9.938019022124415791e-01 -2.559034614579603906e-01 -3.559318782618111854e+00 3.769582073866784011e-01 4.003184813101611006e+00 1.287093320491089044e+00 -1.536140163471756415e+00 -3.588878243886202579e+00 1.852330342618286441e+00 4.594874889400654361e+00 1.816190399375249731e+00 -3.944397562900650467e+00 -8.708136865466137300e-01 -5.099660129002683284e-01 -1.551641345712494457e+00 -2.142174425493320822e+00 -1.827939827572915288e+00 -7.540800397920664366e+00 -1.953489890640413895e+00 8.880143681174448300e-01 1.007479657940469675e+00 -2.235125983104877534e+00 3.207086362156749137e-01 -1.146109952311920921e+00 1.449891472355738786e-01