-1.319115767026390529e+01 3.075247414867784457e+01 9.556691258449760085e+00 3.075247414867784457e+01 -2.556300183483326194e+01 -4.312540590735556378e+01 9.556691258449760085e+00 -4.312540590735556378e+01 -2.956593434374767426e+01
7.217251258264910874e+00 -2.918819134178288621e+01 1.276885378756048128e+00 -2.918819134178288621e+01 -3.455276569968273748e+01 -1.510324068740876235e+01 1.276885378756048128e+00 -1.510324068740876235e+01 -3.870081304350667750e+01
-1.342468697889133864e+02 -7.313805838422603678e+00 2.517723394823538463e+00 -7.313805838422603678e+00 -1.980082579101230777e+01 -1.235522725775263275e+01 2.517723394823538463e+00 -1.235522725775263275e+01 -8.071005739924586919e+01
-5.022485082231366249e+01 -6.853427167743939563e+00 -9.316390887426734935e+00 -6.853427167743939563e+00 -7.816441441735481988e+01 2.882408226233851778e+01 -9.316390887426734935e+00 2.882408226233851778e+01 -4.124189680206689701e+01
-5.174236749780990685e+00 2.483511403417833918e+01 -1.120366148171149057e+01 2.483511403417833918e+01 -3.949520329482886183e+01 1.654918162828137085e+01 -1.120366148171149057e+01 1.654918162828137085e+01 -8.751413206101485542e+00
-9.341286463617620939e+01 -1.222429437882603231e+01 8.435954954955894536e+00 -1.222429437882603231e+01 -5.907065643263319998e+01 -8.799810515340046990e+00 8.435954954955894536e+00 -8.799810515340046990e+00 -5.632439929625815012e+01
-8.542438277740674835e+01 1.963159176909637793e+01 2.520996895588070075e+01 1.963159176909637793e+01 -2.569282290972947180e+01 -7.253938084670837227e+00 2.520996895588070075e+01 -7.253938084670837227e+00 -5.488285266040152521e+01
-5.880386830062055026e+01 1.853813601014189416e+01 -2.541939592971191786e+01 1.853813601014189416e+01 -5.846130213480829241e+01 6.371274479011705516e+00 -2.541939592971191786e+01 6.371274479011705516e+00 -2.554284155639347986e+01
-8.751886118633477096e+00 -1.650472678971599194e+01 -9.518366353290165227e-01 -1.650472678971599194e+01 -2.846114375407817221e+01 -1.677179278107820792e+01 -9.518366353290165227e-01 -1.677179278107820792e+01 -4.364270958110237331e+01
-4.996337051768787063e+01 -3.622317120933572454e+01 1.532904872559634590e+01 -3.622317120933572454e+01 -5.550551524777110757e+01 -1.861654944619526475e+01 1.532904872559634590e+01 -1.861654944619526475e+01 -6.823698108143258878e+01
-8.407123793932564126e+01 -4.998287077627853847e+00 2.965955052725684027e+01 -4.998287077627853847e+00 -3.489481352171274864e+01 -1.466145251066479283e+01 2.965955052725684027e+01 -1.466145251066479283e+01 -1.211653820366886265e+02
-7.172985921203671467e+01 2.481042859842437220e+00 -1.714610372227080148e+01 2.481042859842437220e+00 6.700779589510942102e+00 1.113700907510627047e+01 -1.714610372227080148e+01 1.113700907510627047e+01 -1.157785217011612957e+02
-2.109145571639471939e+01 3.954958114603640951e+01 -3.592923197605727381e+01 3.954958114603640951e+01 -7.104583044067094022e+01 3.960722336321107662e+01 -3.592923197605727381e+01 3.960722336321107662e+01 -4.864212543792042709e+01
-3.834313788744142926e+01 -3.438019079816086787e+01 1.150071316531191457e+01 -3.438019079816086787e+01 1.422687707937503099e+00 3.559812257699665139e+01 1.150071316531191457e+01 3.559812257699665139e+01 -2.339718178923851966e+01
-8.809037809212954429e+00 -1.358645361560514075e+01 -5.391803354613218247e+00 -1.358645361560514075e+01 -7.737729641552308024e+00 5.998322693807751449e+01 -5.391803354613218247e+00 5.998322693807751449e+01 3.129378670409058216e+01
-3.397306805319040279e+01 -2.569899275596761257e+01 -5.942171348823277910e+00 -2.569899275596761257e+01 -5.467307906473148016e+00 -1.884205795688800933e+01 -5.942171348823277910e+00 -1.884205795688800933e+01 -7.988273245546461965e+01
5.148282101171692915e+01 5.763751952113428167e+00 6.260889877801615988e+00 5.763751952113428167e+00 1.716733312997466498e+01 -1.211818523142365756e+01 6.260889877801615988e+00 -1.211818523142365756e+01 -5.993088076950730425e+01
-9.968242838726767729e+01 -1.673912619710616057e-01 1.681513837145549672e+01 -1.673912619710616057e-01 -8.366238994861565459e+01 -6.873122916332202514e+00 1.681513837145549672e+01 -6.873122916332202514e+00 -5.850510427896141863e+01
-3.323230862969382571e+01 -2.071871033139290930e+01 -2.253985584438242284e+01 -2.071871033139290930e+01 -5.873727964903490317e+01 -3.047904467994445099e+01 -2.253985584438242284e+01 -3.047904467994445099e+01 2.350425280578227571e+01
-2.440507503496230512e+01 -4.690648897802167205e+00 -2.901201185560764273e+01 -4.690648897802167205e+00 -5.306465203279213938e+01 9.192900940847398061e+00 -2.901201185560764273e+01 9.192900940847398061e+00 -6.810943785824468932e+01
-3.293228666303677699e+01 2.286628799266250311e+01 -1.525676268239522848e+01 2.286628799266250311e+01 -7.464041139032589456e+01 -5.476344160077820078e+01 -1.525676268239522848e+01 -5.476344160077820078e+01 -6.766583553788086647e+01
-4.163579889615984087e+01 -6.249053762641326060e+00 1.679334083843713543e+01 -6.249053762641326060e+00 -1.511338922149283270e+01 -7.733898131063662973e+00 1.679334083843713543e+01 -7.733898131063662973e+00 -5.802463814458105418e+01
-8.786215783506709442e+01 -2.354845803271085458e+01 -1.097208216823555915e+01 -2.354845803271085458e+01 2.375163123733173975e+01 -9.139761572882720841e+00 -1.097208216823555915e+01 -9.139761572882720841e+00 6.858602238775232784e+00
-6.288241945413032141e+01 1.460755129837947841e+01 8.399604133729468458e+00 1.460755129837947841e+01 -7.903073806404282919e+00 4.294637476683070787e+01 8.399604133729468458e+00 4.294637476683070787e+01 1.823670358871454056e+01
-5.053409331872364163e+01 9.672968685098572550e+00 1.774671009797162213e+01 9.672968685098572550e+00 2.289877871777432716e+01 2.906671351235724288e+01 1.774671009797162213e+01 2.906671351235724288e+01 8.107866322139814841e+00
-9.917446116670841150e+01 6.090358258018387971e+01 2.126187819560758285e+01 6.090358258018387971e+01 -3.707962409730990316e+01 -3.131183213587971537e+01 2.126187819560758285e+01 -3.131183213587971537e+01 -1.506327647465075756e+02
-2.750606772991277893e+01 2.312592916767836115e+01 -4.518589388528349460e+00 2.312592916767836115e+01 -1.089658818665384032e+01 4.050171752319497109e+00 -4.518589388528349460e+00 4.050171752319497109e+00 -1.932495601186188949e+01
1.450498725787321774e+01 -5.977772189329097330e+01 2.349358933184107201e+01 -5.977772189329097330e+01 -6.746593055269531192e+01 2.073181351112799664e+00 2.349358933184107201e+01 2.073181351112799664e+00 -3.037616280799074531e+01
7.446733214343295160e-01 -3.423339726389986737e+01 -2.639260840519623397e+00 -3.423339726389986737e+01 -2.039694299708930958e-01 1.643078051275640883e+00 -2.639260840519623397e+00 1.643078051275640883e+00 2.114196048317316556e+00
-6.957764134389113053e+01 3.549263234085929497e+01 2.383746406452480926e+01 3.549263234085929497e+01 -4.046756122012341450e+01 -3.745741960108156832e+01 2.383746406452480926e+01 -3.745741960108156832e+01 -5.855066578257785892e+01
-8.035689525261933852e+01 2.561664740041764432e+01 2.225993382214650929e+00 2.561664740041764432e+01 -8.171234807035209258e+01 6.178709297145587698e+01 2.225993382214650929e+00 6.178709297145587698e+01 -8.297163511230465360e+01
-4.367641662348581377e+01 -3.403071638874595095e+01 5.147710179493662608e+00 -3.403071638874595095e+01 7.238391372349942010e+00 -1.271913730246245322e+01 5.147710179493662608e+00 -1.271913730246245322e+01 1.435699655571968236e+01
-6.416142795555226996e+01 -1.858456617301115799e+01 3.140386461983432742e+00 -1.858456617301115799e+01 -1.287479538501558807e+02 1.533680850126009965e+01 3.140386461983432742e+00 1.533680850126009965e+01 -8.966609473711075395e+01
-3.495808816532663599e+01 -3.524759921874352386e+01 -3.533054787370392802e+00 -3.524759921874352386e+01 -5.972652964106985252e+01 -2.023428232207529476e+01 -3.533054787370392802e+00 -2.023428232207529476e+01 -7.755676501226936637e+01
-1.066362256507898110e+02 -3.569957254769274613e+01 -1.375327720178518476e+01 -3.569957254769274613e+01 -6.207419801669667692e+01 -1.828652269562792476e+00 -1.375327720178518476e+01 -1.828652269562792476e+00 -4.170501620549456590e+01
-5.443685268777121422e+01 5.760202493113309785e+00 1.927320375270609532e+01 5.760202493113309785e+00 -6.434496600410453482e+01 3.623429239821442138e+01 1.927320375270609532e+01 3.623429239821442138e+01 -8.241733672925464305e+01
-9.388132365076874919e+01 3.017233432002575100e+01 2.777432580200830614e+01 3.017233432002575100e+01 -6.845123975795888782e+01 -8.636229357858793421e+00 2.777432580200830614e+01 -8.636229357858793421e+00 -9.623473498202760368e+01
-9.961787338570503891e+01 7.469703805835654187e+00 4.225875092640451669e+01 7.469703805835654187e+00 -6.947299598267414922e+01 -6.527280941031413874e+00 4.225875092640451669e+01 -6.527280941031413874e+00 -9.362434218802793851e+01
-3.118059845883292880e+01 4.338470840087315850e+01 -2.697643574625280039e+01 4.338470840087315850e+01 -5.876210206229401933e+01 -2.422172066457061401e+00 -2.697643574625280039e+01 -2.422172066457061401e+00 -1.045858353713263966e+02
2.794771334526104312e+01 -1.221751022937515962e+01 -1.376418983868426338e+01 -1.221751022937515962e+01 3.237005283925611820e+01 1.623285257784007385e+01 -1.376418983868426338e+01 1.623285257784007385e+01 -6.684721844876874286e+01
5.165834846077052234e+00 -3.781491529978624921e+00 -1.821931442980510596e+01 -3.781491529978624921e+00 -2.976079499763661218e+01 1.252083570406975355e+01 -1.821931442980510596e+01 1.252083570406975355e+01 3.947358762479002792e+01
-7.640984658305343658e+01 -3.083438896090969994e+00 -1.725598433643101837e+00 -3.083438896090969994e+00 -4.950556927840575838e+01 7.956305866828116358e+00 -1.725598433643101837e+00 7.956305866828116358e+00 -1.431309800232370719e+02
-6.193594335290774211e+01 -1.079145940666971626e+01 3.448005921329313939e+00 -1.079145940666971626e+01 -1.970901083405701470e+01 -8.182341255855510198e+00 3.448005921329313939e+00 -8.182341255855510198e+00 -2.427506290086790841e+01
-2.906334555983920964e+01 7.537217403044722097e+00 1.023101826408867154e+01 7.537217403044722097e+00 -4.089026303562526010e+01 3.838029757467145142e+00 1.023101826408867154e+01 3.838029757467145142e+00 2.830755052783523595e+01
-3.121724503558846919e+01 1.771199597153700367e+01 2.394605505139984558e+01 1.771199597153700367e+01 -1.159024317333743284e+02 -1.555455283667436284e+01 2.394605505139984558e+01 -1.555455283667436284e+01 -9.770819894340706924e+01
-7.656502960794662727e+01 -2.672791864383934168e+01 2.709876322222688927e+01 -2.672791864383934168e+01 -1.046086161123606075e+02 1.229532254445552475e+01 2.709876322222688927e+01 1.229532254445552475e+01 -6.690526436022707912e+01
-4.317813212467877548e+01 5.137150200568422420e+00 2.222087598744468195e+01 5.137150200568422420e+00 -5.905275515555694454e+01 -1.152823740797604124e+01 2.222087598744468195e+01 -1.152823740797604124e+01 -2.029619684162616267e+01
2.147840113064292566e+01 -9.912894663071266876e+00 8.596976569429383375e+00 -9.912894663071266876e+00 -9.237752880284445212e+01 1.665997016655229856e+01 8.596976569429383375e+00 1.665997016655229856e+01 -2.485387138839099563e+01
-3.759221504563848981e+01 -1.893518018985259133e+01 9.065744221928715874e+00 -1.893518018985259133e+01 -6.220655970976954308e+01 -1.059645629477000384e+01 9.065744221928715874e+00 -1.059645629477000384e+01 -4.688647052661145409e+01
-9.580201829312169082e+01 -6.826844026514095276e+00 -2.805179055559089463e+01 -6.826844026514095276e+00 -7.140292068790937208e+01 -4.020997649013448694e+01 -2.805179055559089463e+01 -4.020997649013448694e+01 -8.315389689484047153e+01
1.353762451562016800e+00 -1.539522219426737770e+01 -3.579048088322412391e-01 -1.539522219426737770e+01 -6.335364835415733609e+01 -1.259544374571111192e+01 -3.579048088322412391e-01 -1.259544374571111192e+01 -6.995593784272011817e+01
-5.331918989976489343e+01 -1.367349387023974749e+01 2.721710804008613849e+01 -1.367349387023974749e+01 2.590362976820617646e+01 7.982267425819094875e+00 2.721710804008613849e+01 7.982267425819094875e+00 4.252005808551377442e+01
-8.175071099345949222e+01 4.539143754267995234e+01 -5.233001805951769114e+00 4.539143754267995234e+01 -8.661912492203246927e+01 4.427984626365887522e+01 -5.233001805951769114e+00 4.427984626365887522e+01 -8.247806572637345823e+01
-5.002527447580717279e+01 2.385901179060632415e+01 -3.536514932349560780e+01 2.385901179060632415e+01 -6.813204828560940030e+01 -3.226427702629745209e+00 -3.536514932349560780e+01 -3.226427702629745209e+00 -6.318149061921724297e+01
-6.039387313513952193e+01 3.031145111396779157e+01 1.226825355615384261e+01 3.031145111396779157e+01 -8.153184675968364559e+01 -1.486471728105520995e+01 1.226825355615384261e+01 -1.486471728105520995e+01 -2.626682378528935757e+01
-2.752130016702206206e+01 -5.455117106652519965e+01 -1.112806799166937033e+01 -5.455117106652519965e+01 -8.878859933895459733e+01 -1.922661734591275007e+01 -1.112806799166937033e+01 -1.922661734591275007e+01 -1.058034643115571924e+02
3.229762726781690674e+01 3.836033704107510545e+01 3.309173891326571493e+01 3.836033704107510545e+01 1.437339477609560845e+01 3.781583953154506617e+01 3.309173891326571493e+01 3.781583953154506617e+01 4.988969904707826863e+00
1.652086582806708748e+01 -1.061652464643047544e+01 -1.565323481437746800e+01 -1.061652464643047544e+01 -4.593778363479732718e+01 -2.474172137672531235e+01 -1.565323481437746800e+01 -2.474172137672531235e+01 -3.186990829613609577e+01
-9.635130070425974225e+01 -2.492966093181568255e+01 -1.208173833468878966e+00 -2.492966093181568255e+01 -5.677198746276116736e+01 1.127494928371922356e+01 -1.208173833468878966e+00 1.127494928371922356e+01 -1.984911150657178780e+01
-8.462543479565836435e+01 2.018867781470364164e+01 9.834847580229185482e+00 2.018867781470364164e+01 -7.682069624821640730e+01 -9.748689479345229003e+00 9.834847580229185482e+00 -9.748689479345229003e+00 -8.027601246776069388e+01
-2.168839793967962493e+01 4.850065675658108688e+01 -2.170617519731012734e+01 4.850065675658108688e+01 -4.207236835487313087e+00 -1.062698714963245195e+01 -2.170617519731012734e+01 -1.062698714963245195e+01 -2.626646255096404659e+01
-1.322076292791234309e+01 -4.250126049923746763e+01 -7.911472835919065361e+00 -4.250126049923746763e+01 -5.417053977552191668e+01 2.942755112905154746e+01 -7.911472835919065361e+00 2.942755112905154746e+01 -8.228276777525329067e+01
-8.183781628332758373e+01 1.546295849516855547e+01 2.801330657489904041e+01 1.546295849516855547e+01 -8.577221056816014766e+01 4.419116494316347143e+01 2.801330657489904041e+01 4.419116494316347143e+01 -7.144436431639822160e+01
-6.610437008685320848e+01 2.965309193658454490e+01 3.016478149422917099e+01 2.965309193658454490e+01 1.511448919928861301e+01 -3.637385141282791068e+01 3.016478149422917099e+01 -3.637385141282791068e+01 -4.780473311205807363e+01
-9.595736309997990077e+01 7.044256659592655623e-02 -2.867247936552851684e+01 7.044256659592655623e-02 -9.874988701299945149e+01 -3.766071704632622641e+00 -2.867247936552851684e+01 -3.766071704632622641e+00 -9.019210554009497116e+01
-7.259551260191197741e+01 1.079512878244943508e+01 -6.701321950241805325e+00 1.079512878244943508e+01 -9.289564192571536694e+01 3.591839640576323234e+01 -6.701321950241805325e+00 3.591839640576323234e+01 -5.382332931592784320e+01
-3.388883732466037202e+01 -1.297072062194006570e+01 -1.443462313037158573e+01 -1.297072062194006570e+01 -8.409357433511218005e+01 1.220927102943023890e+01 -1.443462313037158573e+01 1.220927102943023890e+01 -6.512994034731531201e+01
-3.757774825447678779e+01 3.616396204443997675e+01 -3.966965883102146506e+01 3.616396204443997675e+01 -8.399963477573518844e+01 -1.053218089064979601e+01 -3.966965883102146506e+01 -1.053218089064979601e+01 -1.048578661712265045e+02
-3.309325674463665479e+01 4.214475864908692415e+01 3.025094720957638827e+01 4.214475864908692415e+01 -5.787934440460280427e+01 2.832360880312043250e+01 3.025094720957638827e+01 2.832360880312043250e+01 -1.023198867364033049e+01
-5.526187764349160858e+01 -8.704066178006971910e+00 -5.249008495312779132e+01 -8.704066178006971910e+00 6.584044655533476487e+01 9.411350611913693598e+00 -5.249008495312779132e+01 9.411350611913693598e+00 -1.717723934460932611e+01
-4.872573875631014317e+01 -2.013135231352728383e+01 3.581814257916351352e+01 -2.013135231352728383e+01 -6.787159897361729577e+01 2.053389674458624636e+00 3.581814257916351352e+01 2.053389674458624636e+00 -5.813568986533183391e+01
-5.000115455984049362e+01 2.559043877024595304e+01 3.156581960138273146e+01 2.559043877024595304e+01 -8.062276697449721041e+01 -1.480327078185286993e+01 3.156581960138273146e+01 -1.480327078185286993e+01 -1.132774971562328830e+02
-1.639151192612927854e+00 -1.494272194538050513e+01 -4.148557972613262024e+01 -1.494272194538050513e+01 -8.288388419460009260e+00 -1.012740936402030734e+01 -4.148557972613262024e+01 -1.012740936402030734e+01 2.032248461676876872e+01
-8.997626028108957996e+01 -4.221526634008560208e+00 -2.204703384983407233e+01 -4.221526634008560208e+00 -6.495505413590605315e+01 1.600134753161297496e+01 -2.204703384983407233e+01 1.600134753161297496e+01 -1.060304832939218755e+02
-5.338656108373916709e+01 1.114627559121300315e+01 1.734255759711412992e+01 1.114627559121300315e+01 -3.790858190906469360e+01 2.786879735790180490e+01 1.734255759711412992e+01 2.786879735790180490e+01 -8.550404342409792946e+01
-4.289968767041586517e+01 -1.306872308629131751e+01 1.091535155845768479e+01 -1.306872308629131751e+01 -6.792414170096296289e+01 -9.287964962828867854e+00 1.091535155845768479e+01 -9.287964962828867854e+00 -2.665421039536430214e+01
-1.094562063104591090e+02 -2.056174142971813268e+01 -7.731552275998303081e+00 -2.056174142971813268e+01 -1.211040458846512138e+02 -2.568563472829665528e+01 -7.731552275998303081e+00 -2.568563472829665528e+01 -5.844259198707977987e+01
-1.974716796010520170e+01 -3.412840991947095670e+00 2.842948997852363213e+00 -3.412840991947095670e+00 -9.000386155656769915e+01 -1.566394478971485249e+01 2.842948997852363213e+00 -1.566394478971485249e+01 8.382395609420255411e+00
-7.326091724413683437e+01 4.907739500800498256e+00 2.564189866413882868e+01 4.907739500800498256e+00 -8.792144495931827919e+01 -1.543664575413015072e+01 2.564189866413882868e+01 -1.543664575413015072e+01 -4.977063438078308621e+01
-1.323299297387237594e+01 -1.960738047530993100e+01 -1.769420971296333889e+01 -1.960738047530993100e+01 -5.048483994798579033e+01 8.693826968694665425e+00 -1.769420971296333889e+01 8.693826968694665425e+00 -4.044045025631226764e+01
-7.861051559103010788e+00 1.617794889375965894e+01 1.338493413509337415e+01 1.617794889375965894e+01 -5.218285393192935118e+01 7.885831520544539508e+00 1.338493413509337415e+01 7.885831520544539508e+00 -6.641529119148898985e+01
-1.241806945497685533e+01 5.292787334667350407e+00 -1.721802149295606199e+01 5.292787334667350407e+00 -1.381101247937572474e+01 3.615068468965989723e+01 -1.721802149295606199e+01 3.615068468965989723e+01 -1.316415624215185289e+02
-2.111509923380912590e-01 1.258408202064980230e+01 2.055727915458233213e+01 1.258408202064980230e+01 -7.469553872203202616e+01 -1.341058259387024876e+01 2.055727915458233213e+01 -1.341058259387024876e+01 -4.522386607791823110e+01
-6.580905915586083665e+01 4.387691495327363356e+00 -2.851502453364224365e+01 4.387691495327363356e+00 -1.015284232676923466e+02 5.783248123568539789e+00 -2.851502453364224365e+01 5.783248123568539789e+00 -4.635372802434067552e+01
-1.244664913468733829e+02 1.153701396346407337e+00 -7.268811750685970630e+00 1.153701396346407337e+00 -5.084601499730022311e+01 3.022690364148036224e+01 -7.268811750685970630e+00 3.022690364148036224e+01 -4.702045635764903864e+01
-3.228717688333845359e+01 -2.462352629749783972e+01 5.694301847229600355e+01 -2.462352629749783972e+01 -6.965753056723794145e+01 5.626620587823643937e+00 5.694301847229600355e+01 5.626620587823643937e+00 2.452005331332080118e+01
-4.902220288757764877e+01 5.652286215458251384e+00 2.228509602938437695e+01 5.652286215458251384e+00 -1.016951145440476836e+02 -4.012672211234770714e+01 2.228509602938437695e+01 -4.012672211234770714e+01 -1.286574481567806174e+02
-1.037131566395928672e+02 -1.952345848478671897e+01 -2.048299245712814809e+01 -1.952345848478671897e+01 -6.621290767230395602e+01 -1.481489068783895569e+01 -2.048299245712814809e+01 -1.481489068783895569e+01 -4.673694044314236606e+01
-4.455378668618472915e+01 -1.294739976962108230e+01 -3.670320561780699986e+00 -1.294739976962108230e+01 -7.619216802503787633e+00 1.328827408895164552e+01 -3.670320561780699986e+00 1.328827408895164552e+01 -5.256728905683127095e+01
-7.691062121804408491e+01 -1.016230201497228158e+01 -4.585876564534038025e+00 -1.016230201497228158e+01 -8.948073069723670869e+01 8.377310089744831600e+00 -4.585876564534038025e+00 8.377310089744831600e+00 -3.953265782265736306e+01
-1.032163896163838359e+02 8.113480929364101257e+00 1.756204397457682376e+01 8.113480929364101257e+00 -4.730716996534950169e+01 1.018144501725521422e+01 1.756204397457682376e+01 1.018144501725521422e+01 -9.830069796588435338e+01
-4.156650296784091125e+01 3.349272658878441433e+01 2.956015816081863257e+00 3.349272658878441433e+01 -3.234637026069967192e+01 -7.859105024094227510e+00 2.956015816081863257e+00 -7.859105024094227510e+00 -4.912311486766848390e+01
-3.492729747677604735e+01 -3.420565399913688687e+00 9.279086756250391588e+00 -3.420565399913688687e+00 -7.043454360737138131e+01 4.911511837184890261e+00 9.279086756250391588e+00 4.911511837184890261e+00 -3.299584835068782951e+01
-8.255847968621475275e+01 1.195415711523674851e+01 -2.729466411752673594e+01 1.195415711523674851e+01 -4.616012425748004944e+01 4.082035736742705012e+01 -2.729466411752673594e+01 4.082035736742705012e+01 -6.735927200042054608e+01
-8.376834343535191962e+00 8.697438306026421984e+00 -2.420331967937353923e+01 8.697438306026421984e+00 -3.764760512675810844e+01 -1.766154084189643214e+01 -2.420331967937353923e+01 -1.766154084189643214e+01 1.624236024865026806e+01
-6.684043130177191472e+01 8.555231934891940782e+00 1.215356904355988377e+01 8.555231934891940782e+00 -1.872669296383558901e+01 -2.176783025069225719e+00 1.215356904355988377e+01 -2.176783025069225719e+00 -3.408558182221635491e+01
-3.932375306359025302e+01 1.084199148699633852e+01 1.540749538381961514e+01 1.084199148699633852e+01 -7.972062018636893299e+01 -3.538181051648690811e+01 1.540749538381961514e+01 -3.538181051648690811e+01 -5.914853799212679775e+01
-7.204694209559200146e+01 -3.659239465313021356e+01 -1.882983488012295581e+01 -3.659239465313021356e+01 -2.475857816096082331e+01 -1.680261384376327172e+01 -1.882983488012295581e+01 -1.680261384376327172e+01 -3.295480821574513186e+01
-7.420807671386376114e+01 -1.537280394867280542e+01 -1.297536423794018212e+01 -1.537280394867280542e+01 -4.043476050543992528e+01 9.142846692346013882e+00 -1.297536423794018212e+01 9.142846692346013882e+00 -8.145605086153577190e+01
-3.635637969543115133e+01 4.454113329508508912e+01 -1.799818411506578997e+01 4.454113329508508912e+01 -1.327009010657266863e+01 -3.501712572482701624e+00 -1.799818411506578997e+01 -3.501712572482701624e+00 -4.804614891078309569e+01
-1.112917723417029805e+02 4.195297542563451998e+01 -1.569323854799729911e+00 4.195297542563451998e+01 -7.908644915546452125e+01 3.366360124866335468e+01 -1.569323854799729911e+00 3.366360124866335468e+01 8.680507803724170302e+00
1.988681813569731227e-01 2.188309033602428855e+01 -2.161623868016391725e+01 2.188309033602428855e+01 -9.448779445629780582e+01 2.561185436210768884e+01 -2.161623868016391725e+01 2.561185436210768884e+01 -8.192844927182493109e+01
-6.032665568911826881e+01 1.618198194983572691e+01 -2.554771234498314295e-02 1.618198194983572691e+01 -8.265577525386680691e+01 -2.705269355967301692e+01 -2.554771234498314295e-02 -2.705269355967301692e+01 -1.358419028115612903e+01
-6.689253139455185249e+01 -2.595485641954470424e+01 1.426306824616333913e+01 -2.595485641954470424e+01 -7.326904937719177724e+01 -4.112595719076954737e+01 1.426306824616333913e+01 -4.112595719076954737e+01 -6.392491943062560011e+01
1.777880874480311491e+01 3.609364037682110649e+01 1.101929933709323350e+01 3.609364037682110649e+01 1.932972050841669542e+01 2.957580090984612298e+01 1.101929933709323350e+01 2.957580090984612298e+01 -7.893806005217787458e+01
-1.331128718876140056e+02 -1.734605693082875932e+00 -5.128556009334148236e+00 -1.734605693082875932e+00 -4.618859172674055458e+01 1.775692849918627303e+00 -5.128556009334148236e+00 1.775692849918627303e+00 -8.712631313403041133e+01
-1.338237629953836461e+02 8.254672496046111529e-01 -1.074214721646644044e+01 8.254672496046111529e-01 -3.569877764928190089e+01 -1.520809726546366925e+01 -1.074214721646644044e+01 -1.520809726546366925e+01 -1.165139781796775225e+02
-8.607707454174529005e+01 -1.132178641592845736e+01 4.470937380184151522e+01 -1.132178641592845736e+01 -7.997318778602260814e+00 -3.543356175536629138e+01 4.470937380184151522e+01 -3.543356175536629138e+01 -1.924488975004868863e+01
-9.178360146034032141e+01 3.907840973332109513e+01 -2.661448528287381876e+01 3.907840973332109513e+01 -5.639218414402024138e+01 8.897595656626810623e+00 -2.661448528287381876e+01 8.897595656626810623e+00 -2.968754528648145197e+01
-6.471889748561792999e+01 4.827441159041032215e+00 -3.440307735172031256e-01 4.827441159041032215e+00 -1.068046062057250509e+02 4.406651771522154348e+01 -3.440307735172031256e-01 4.406651771522154348e+01 -4.941123735801399874e+01
-7.088331945113026222e+00 2.621203704379454535e+01 -9.149234307792619703e+00 2.621203704379454535e+01 1.927949450329928638e+01 -6.449109060109343261e+00 -9.149234307792619703e+00 -6.449109060109343261e+00 -3.849913127128133716e+00
-1.608067801732647339e+01 8.980311707606858818e+00 5.018279678977021208e-01 8.980311707606858818e+00 -5.793629004696717288e+01 3.995932206135193177e+00 5.018279678977021208e-01 3.995932206135193177e+00 -6.608369673154859925e+01
-8.793759737290554312e+01 2.159368191520183089e+01 4.982367307685113644e+01 2.159368191520183089e+01 -1.025622251981062476e+02 2.030123230615857821e+01 4.982367307685113644e+01 2.030123230615857821e+01 -3.352710629877824999e+01
-6.233887465674968809e+01 1.525951852200467584e+01 1.125476685756252948e+01 1.525951852200467584e+01 -6.491233397694611540e+01 -1.760354179839478661e+01 1.125476685756252948e+01 -1.760354179839478661e+01 5.738160391566160712e+01
-4.772155555654552472e+01 -9.287794511407271969e+00 -2.384521215832964103e+01 -9.287794511407271969e+00 -6.887107451109717715e+01 1.522414667124961873e+01 -2.384521215832964103e+01 1.522414667124961873e+01 -6.102905134997819658e+01
-6.515350380200884217e+01 -1.063237894045469467e+01 -2.526409322185043038e+01 -1.063237894045469467e+01 -7.762006648501586881e+01 6.983391537005088523e+00 -2.526409322185043038e+01 6.983391537005088523e+00 -3.316729722130463642e+01
-9.017159903401427812e+00 -2.905307890189139286e+01 3.164914008841624238e+01 -2.905307890189139286e+01 -7.366381379643864591e+01 -6.954559001698723542e+00 3.164914008841624238e+01 -6.954559001698723542e+00 -6.443742968361459589e+01
-1.060793320000172031e+02 -2.124856762334291105e+01 1.489027654911240894e+01 -2.124856762334291105e+01 3.047905501940574169e+01 5.350528419478320252e+00 1.489027654911240894e+01 5.350528419478320252e+00 -9.144632851710656496e+01
1.602579435434365251e+01 1.535077153664700411e+01 -3.388871877634484520e+01 1.535077153664700411e+01 -1.291111644044166695e+01 1.514177310134337695e+01 -3.388871877634484520e+01 1.514177310134337695e+01 1.564725982930688808e+01
-3.578763459912990186e+01 -1.540077999908459283e+01 -2.899387528609976172e+01 -1.540077999908459283e+01 1.339763994315474527e+01 -2.724764272870979998e+00 -2.899387528609976172e+01 -2.724764272870979998e+00 -5.888304316365553603e+01
-9.304649131189761135e+01 -6.157152872139107558e+00 -1.178475160954894640e+01 -6.157152872139107558e+00 -3.732403933707756494e+01 -8.709171911527135990e+00 -1.178475160954894640e+01 -8.709171911527135990e+00 -2.592676073598324393e+01
-1.055163412243611987e+02 1.067273840150627429e+01 3.153250689742824164e+01 1.067273840150627429e+01 -5.877444738686476455e+01 1.939295759284087950e+01 3.153250689742824164e+01 1.939295759284087950e+01 -7.955218408277676190e+01
-6.094124169975549421e+01 -2.183526467321842901e+01 -6.387766440856938566e+00 -2.183526467321842901e+01 -3.789528236289093144e+01 2.113855219056397061e+00 -6.387766440856938566e+00 2.113855219056397061e+00 -2.499914243423549109e+01
-5.837422231570937470e+01 7.306670937709706770e+00 2.491653217752515204e+01 7.306670937709706770e+00 -1.013503391330049652e+01 -9.156246513888218530e+00 2.491653217752515204e+01 -9.156246513888218530e+00 -7.613601881788173387e+01
-1.749853538358390992e+01 1.123603174569576346e+01 -5.349554289584657951e+00 1.123603174569576346e+01 4.580914887543705127e+00 -2.668976276960550109e+01 -5.349554289584657951e+00 -2.668976276960550109e+01 -1.832185507266897062e+01
-7.968773733356189837e+01 9.847837554674036653e+00 -2.737449025872867203e+00 9.847837554674036653e+00 -8.137952617327323424e+01 -6.118598485427308020e+01 -2.737449025872867203e+00 -6.118598485427308020e+01 -1.690435293224933133e+01
4.425422874748893065e+00 7.911029515413845914e+00 1.409656290117086463e+01 7.911029515413845914e+00 -5.060172016201412504e+01 -2.610674981385676574e+01 1.409656290117086463e+01 -2.610674981385676574e+01 1.598312581035862934e+01
-1.095406886922894785e+02 1.432253225527338003e+01 -4.058362152644830445e+01 1.432253225527338003e+01 -9.061704894619907691e+01 2.843972179141927015e+00 -4.058362152644830445e+01 2.843972179141927015e+00 -7.732139029162064503e+01
-7.288294856359738105e+01 6.448254212933346441e-01 -8.278603959463843864e+00 6.448254212933346441e-01 -6.529500376192171984e+01 1.238727827859529285e+01 -8.278603959463843864e+00 1.238727827859529285e+01 -6.984194160011327313e+01
-3.177650104762201977e+01 2.282637313464164919e+01 2.989834118973706722e+01 2.282637313464164919e+01 -2.532061716211682079e+00 -3.117639074075462702e+01 2.989834118973706722e+01 -3.117639074075462702e+01 -1.950867015866094079e+01