-7.753143738348555053e+04
-7.754321752499548893e+04
-7.754389228334314248e+04
-7.753908933239751786e+04
-7.754559074883018911e+04
-7.754128763952363806e+04
-7.754586103998425824e+04
-7.754141248511229060e+04
-7.754562501230249472e+04
-7.754108708081723307e+04
-7.753519132928655017e+04
-7.754093374618589587e+04
-7.753702910669638368e+04
-7.753718725699748029e+04
-7.754761820664929110e+04
-7.753864733557935688e+04
-7.754595293217313883e+04
-7.753889821719746396e+04
-7.753815311121266859e+04
-7.753610592129947327e+04
-7.754922637344774557e+04
-7.753702394063498650e+04
-7.754247126241591468e+04
-7.754482198073582549e+04
-7.753991226458174060e+04
-7.753959776615812734e+04
-7.753057343228100217e+04
-7.754342125735744776e+04
-7.754786905502482841e+04
-7.753601191054952506e+04
-7.754198733769687533e+04
-7.754018056421702204e+04
-7.755125924559323175e+04
-7.754499669879174326e+04
-7.754802132284369145e+04
-7.754175182748428779e+04
-7.752889871834752557e+04
-7.754015735960118764e+04
-7.754304152216254442e+04
-7.754021238187275594e+04
-7.754416649976467306e+04
-7.754108549327056971e+04
-7.754132493591816456e+04
-7.753671531576973211e+04
-7.753280397298367461e+04
-7.754689596106270619e+04
-7.753149625209996884e+04
-7.754990610049547104e+04
-7.754326648939511506e+04
-7.752577026371620013e+04
-7.753020330624667986e+04
-7.754397018191871757e+04
-7.754996225212112768e+04
-7.754822700355881534e+04
-7.754289437292034563e+04
-7.754367268951136793e+04
-7.755245725786748517e+04
-7.753441704890690744e+04
-7.753834299865536741e+04
-7.754215357922992553e+04
-7.754446493230474880e+04
-7.754097004258127708e+04
-7.754945565697846177e+04
-7.753451680429073167e+04
-7.753755956698853697e+04
-7.752759306753413694e+04
-7.754187734665164317e+04
-7.754131700714744511e+04
-7.754473099426255794e+04
-7.754375495377439074e+04
-7.753921618597756606e+04
-7.754283104123119847e+04
-7.754335470423352672e+04
-7.753803263398958370e+04
-7.753685393904373632e+04
-7.753413234917286900e+04
-7.753240091159039002e+04
-7.754002280242661072e+04
-7.753595630591340887e+04
-7.754637076987895125e+04
-7.754344142604192893e+04
-7.754183714227270684e+04
-7.754132183113429346e+04
-7.753739697020428139e+04
-7.753384786434829584e+04
-7.752590240967196587e+04
-7.754008367336970696e+04
-7.754189275077992352e+04
-7.753861668889828434e+04
-7.753760320058643993e+04
-7.754607104392384645e+04
-7.754722844649862964e+04
-7.754385093853903527e+04
-7.754259425363167247e+04
-7.753842148182570236e+04
-7.754538431543752085e+04
-7.754660806872270769e+04
-7.754230739777191775e+04
-7.755068614826620615e+04
-7.754562501940486254e+04
-7.754385897420851688e+04
-7.754376990068408486e+04
-7.753708149087140919e+04
-7.754030543098745693e+04
-7.753450428984563041e+04
-7.754316652560578950e+04
-7.753679584742829320e+04
-7.754830645157581603e+04
-7.754028123469889397e+04
-7.753579517969021981e+04
-7.752530856458932976e+04
-7.755002405138983158e+04
-7.753535151298141864e+04
-7.753218641134719655e+04
-7.754239436445514730e+04
-7.754132787321442447e+04
-7.754302596578144585e+04
-7.754242380680858332e+04
-7.753072787774592871e+04
-7.754336642693156318e+04
-7.754806610541039845e+04
-7.754392968077828118e+04
-7.755120592821064929e+04
-7.754635062918069889e+04
-7.754224416987237055e+04
-7.754003917791783169e+04
-7.754225809206195117e+04
-7.752668508109575487e+04
-7.753373835624261119e+04
-7.753438606427144259e+04
-7.754326169689862581e+04
-7.754432975569993141e+04
-7.754390878518714453e+04
-7.753069996675071889e+04
-7.753120274036415503e+04
-7.754181944613433734e+04
-7.753830894919185084e+04
-7.753477357444216614e+04
-7.753493138947695843e+04
-7.754181743416041718e+04
-7.753916856708872365e+04
-7.753908419758104719e+04
-7.753858236495482561e+04
-7.753715773989752051e+04
-7.753841017420393473e+04
-7.753748977789643686e+04
-7.755195734741288470e+04
-7.753397431777030579e+04
-7.753765969274600502e+04
-7.754389857599731477e+04
-7.752778368423673965e+04
-7.753317735649431415e+04
-7.753811183905028156e+04
-7.753780544650153024e+04
-7.754347529819581541e+04
-7.753629427814889641e+04
-7.752833710784612049e+04
-7.754607155881571816e+04
-7.753038702730135992e+04
-7.753414639410669042e+04
-7.754485523012930935e+04
-7.753721627455858106e+04
-7.754145619907230139e+04
-7.754278072892679484e+04
-7.754463415627747600e+04
-7.755099126913562941e+04
-7.754126792822999414e+04
-7.753861287743477442e+04
-7.753796016511213384e+04
-7.753842244570456387e+04
-7.753277180092562048e+04
-7.754687991278628760e+04
-7.753589575129578589e+04
-7.754319737786160840e+04
-7.753454413180594565e+04
-7.753598358673177427e+04
-7.753320614316649153e+04
-7.754492342494177865e+04
-7.754372880786401220e+04
-7.754669569444780063e+04
-7.753859386955041555e+04
-7.753637479691121553e+04
-7.753174683779884072e+04
-7.754807600935023220e+04
-7.753657544756434800e+04
-7.753284167150605936e+04
-7.753556107869556581e+04
-7.754329534488231002e+04
-7.754671258749745903e+04
-7.753783861730943318e+04
-7.753547781411551114e+04
-7.754352027204676415e+04
-7.753659942698988016e+04
-7.753720861182913359e+04
-7.753702296652419318e+04
-7.753637177566357423e+04
-7.754516643188278249e+04
-7.753406600043534127e+04
-7.754700017854249745e+04
-7.752859865634575544e+04
-7.754920858502348710e+04
-7.753742578387660615e+04
-7.754759671127641923e+04
-7.753802899146929849e+04
-7.754698417112929747e+04
-7.754699615502028610e+04
-7.752942168815896730e+04
-7.754203468412625080e+04
-7.753177544631641649e+04
-7.753958510059209948e+04
-7.753497100759953901e+04
-7.752919625639102014e+04
-7.753497689397929935e+04
-7.754065657867943810e+04
-7.754864931651753432e+04
-7.754499269432913570e+04
-7.753778145324981597e+04
-7.753075137162668398e+04
-7.753806220611896424e+04
-7.754339190073784266e+04
-7.754149174143781420e+04
-7.753437547776997963e+04
-7.755002567268017447e+04
-7.753694235540136287e+04
-7.754911423761228798e+04
-7.753496777401790314e+04
-7.753251391113911814e+04
-7.754674936336098472e+04
-7.753768612212305015e+04
-7.753535586998079089e+04
-7.754058708431848208e+04
-7.753625219430426660e+04
-7.754312420952327375e+04
-7.753962629079981707e+04
-7.754012780905679392e+04
-7.754107941663826932e+04
-7.754121528162242612e+04
-7.754473739508099970e+04
-7.753754779457306722e+04
-7.754433626325867954e+04
-7.754939961408992531e+04
-7.753550649254408199e+04
-7.754092605784047919e+04
-7.754483447398852149e+04
-7.753173815921555797e+04
-7.754478064269738388e+04
-7.755219880024343729e+04
-7.754022851852499298e+04
-7.754521285019724746e+04
-7.753906940428588132e+04
-7.754012683978826681e+04
-7.754264118287048768e+04
-7.754027012628514785e+04
-7.754143122997318278e+04
-7.754617039562450373e+04
-7.753687287144805305e+04
-7.754689946992555633e+04
-7.754610157775291009e+04
-7.752605632967263227e+04
-7.752616785856707429e+04
-7.754244656690063130e+04
-7.753500514826510334e+04
-7.754930876921913296e+04
-7.754275727333409304e+04
-7.753616528055797971e+04
-7.754553426010355179e+04
-7.754450340665350086e+04
-7.754557875751280517e+04
-7.754083354157950089e+04
-7.753697723883339495e+04
-7.754918809019558830e+04
-7.754484392843965907e+04
-7.753335257265200198e+04
-7.754083457936832565e+04
-7.752989800082842703e+04
-7.754676611619457253e+04
-7.754612652299182082e+04
-7.754353136792543228e+04
-7.754941314406269521e+04
-7.753909755340139964e+04
-7.754768094964910415e+04
-7.753464155792926613e+04
-7.753129111852489586e+04
-7.754372825752961216e+04
-7.754798014096538827e+04
-7.754844609246820619e+04
-7.753759050102729816e+04
-7.753392567907187913e+04
-7.753897423971084936e+04
-7.753933156512684945e+04
-7.754903927469212795e+04
-7.753573601388040697e+04
-7.754295468539489957e+04
-7.754163479577550606e+04
-7.753903531100391410e+04
-7.753842497270158492e+04
-7.754049965683343180e+04
-7.753871176033413212e+04
-7.754269672246376285e+04
-7.754505862919465289e+04
-7.755039399574577692e+04
-7.753846117619069992e+04
-7.752769043782453809e+04
-7.753159310620646283e+04
-7.754139561621249595e+04
-7.754474016809873865e+04
-7.753447770561272046e+04
-7.753315841731980618e+04
-7.754575554802770785e+04
-7.754166716700380493e+04
-7.753618886009627022e+04
-7.753160203660733532e+04
-7.754590551968943328e+04
-7.754140417046449147e+04
-7.753970767760302988e+04
-7.753441451879937085e+04
-7.753219624003637000e+04
-7.754597420374648937e+04
-7.753400852361033321e+04
-7.753505339618099970e+04
-7.754280099680402782e+04
-7.754862377279513748e+04
-7.753901429973228369e+04
-7.753920673225035716e+04
-7.754472268726531183e+04
-7.753642204783220950e+04
-7.755191362410889997e+04
-7.754292728998008533e+04
-7.754614934943486878e+04
-7.753111844755783386e+04
-7.753850635562474781e+04
-7.753406035866083403e+04
-7.753632740639139956e+04
-7.754203545249578019e+04
-7.754641885167799774e+04
-7.754645192980188585e+04
-7.755240195036052319e+04
-7.753441158320431714e+04
-7.753614478293004504e+04
-7.753819278529736039e+04
-7.753371601556210953e+04
-7.753531891921744682e+04
-7.752904054203932174e+04
-7.754680828261030547e+04
-7.753457010735671793e+04
-7.753298137160525948e+04
-7.753484628156253893e+04
-7.754119532691419590e+04
-7.754170182407731772e+04
-7.753586169914029597e+04
-7.753545033446952584e+04
-7.754351176627854875e+04
-7.753419768331185332e+04
-7.754257294307320262e+04
-7.753479720167747291e+04
-7.754238783324018004e+04
-7.754184573279393953e+04
-7.754430097334795573e+04
-7.752995406587664911e+04
-7.753931872721780383e+04
-7.754019177686820331e+04
-7.753598139198595891e+04
-7.753906512624863535e+04
-7.753698533775798569e+04
-7.753468576986217522e+04
-7.753933531097596278e+04
-7.754213777852272324e+04
-7.753482574497676978e+04
-7.753723309450033412e+04
-7.753560926998520154e+04
-7.753811202433142171e+04
-7.753294382372176915e+04
-7.754223692746221786e+04
-7.755085966009137337e+04
-7.753593282993487082e+04
-7.753291147071469459e+04
-7.753420412973620114e+04
-7.754120843663175765e+04
-7.753763035203926847e+04
-7.754746756547605037e+04
-7.754108511223628011e+04
-7.754152183115974185e+04
-7.754251934746360348e+04
-7.753736746760642563e+04
-7.754667164875756134e+04
-7.754536977677777759e+04
-7.753346676657460921e+04
-7.753308645576254639e+04
-7.753498467163252644e+04
-7.754669473742620903e+04
-7.754353831657502451e+04
-7.753970570016902639e+04
-7.754225605128207826e+04
-7.754726690452062758e+04
-7.754061565723821695e+04
-7.753829532535209728e+04
-7.754111234126823547e+04
-7.753551086110046890e+04
-7.753459884730914200e+04
-7.753121495101953042e+04
-7.754111967879810254e+04
-7.753349902787536848e+04
-7.753950896204885794e+04
-7.754196664211829193e+04
-7.753969417285734380e+04
-7.754172711959258595e+04
-7.754017101419086976e+04
-7.754049733949269284e+04
-7.753640010519322823e+04
-7.753381654076224368e+04
-7.754158134073887777e+04
-7.753355158843802928e+04
-7.753324032193995663e+04
-7.753641458981409960e+04
-7.754323243696262944e+04
-7.753517079419689253e+04
-7.754537812661315547e+04
-7.754557820357757737e+04
-7.753891906399346772e+04
-7.754281018231551570e+04
-7.754047213718318380e+04
-7.754401502214831999e+04
-7.753555830792142660e+04
-7.754736612397989666e+04
-7.753830972118850332e+04
-7.754545582542176999e+04
-7.754017840763449203e+04
-7.753901140229275916e+04
-7.753912854022969259e+04
-7.753358137098691077e+04
-7.753857432682831131e+04
-7.754246031647225027e+04
-7.753582458720992145e+04
-7.755534179492836120e+04
-7.754143454583772109e+04
-7.753985583209988545e+04
-7.754207953586161602e+04
-7.753139952704336611e+04
-7.753825179347441008e+04
-7.753120817928209726e+04
-7.754227420264456305e+04
-7.753488829474859813e+04
-7.754037221225607209e+04
-7.754611212201941817e+04
-7.754197589707915904e+04
-7.753016372188409150e+04
-7.754975388652023685e+04
-7.754367094793329306e+04
-7.753404969048389466e+04
-7.753451317302160896e+04
