1.512929389224824490e+03 5.710559897746085412e+00 1.398305708806173975e+01 5.710559897746085412e+00 1.480275687137765317e+03 -2.167059531519517179e+01 1.398305708806173975e+01 -2.167059531519517179e+01 1.545415509327309792e+03
1.490251267068060770e+03 5.942333793821562438e+01 -3.232551750525607304e+01 5.942333793821562438e+01 1.494346271539586724e+03 -3.314104835411531447e+00 -3.232551750525607304e+01 -3.314104835411531447e+00 1.539446140226588341e+03
1.551685364823370719e+03 -4.818570683265016896e+01 5.508716373550728918e+01 -4.818570683265016896e+01 1.510299145648470130e+03 -2.266200387434139873e+00 5.508716373550728918e+01 -2.266200387434139873e+00 1.538423815732473031e+03
1.502120636309157589e+03 5.983187929035140229e+01 2.105950093038240922e+01 5.983187929035140229e+01 1.546360079582512526e+03 -6.540592527092829123e+00 2.105950093038240922e+01 -6.540592527092829123e+00 1.545860153453148087e+03
1.492776946478869604e+03 -4.455554672566182539e+00 2.343987399042995889e+01 -4.455554672566182539e+00 1.529593364563840623e+03 1.795052214465765417e+01 2.343987399042995889e+01 1.795052214465765417e+01 1.533305738540033872e+03
1.547801103661539400e+03 -9.533262432446132806e+00 -7.596865131434815055e+01 -9.533262432446132806e+00 1.554024602802973732e+03 -6.036872365327329959e+01 -7.596865131434815055e+01 -6.036872365327329959e+01 1.467274640393661684e+03
1.496332991215072525e+03 5.561895116235198167e+00 -6.667682093565323598e+00 5.561895116235198167e+00 1.530215872879443623e+03 4.167090593196160597e+01 -6.667682093565323598e+00 4.167090593196160597e+01 1.495586631146844866e+03
1.524502147314406784e+03 -3.141002780856647192e+01 8.528554491222154255e+00 -3.141002780856647192e+01 1.443283806882638828e+03 9.469800257661225018e+00 8.528554491222154255e+00 9.469800257661225018e+00 1.557401045839917515e+03
1.548834697209198566e+03 7.021208868937965519e+01 -2.283786792113109243e+01 7.021208868937965519e+01 1.539149773778612598e+03 -1.314634411062102437e+00 -2.283786792113109243e+01 -1.314634411062102437e+00 1.501527051488151983e+03
1.468353132404274220e+03 -5.607007894468877041e+00 -1.283830884068942169e+01 -5.607007894468877041e+00 1.546214466847768563e+03 -2.916523491068089768e+01 -1.283830884068942169e+01 -2.916523491068089768e+01 1.515475979574334360e+03
1.534490238118090247e+03 5.328106856811697867e+01 2.532371068521347190e+00 5.328106856811697867e+01 1.556403346148346600e+03 5.915234072558133249e+01 2.532371068521347190e+00 5.915234072558133249e+01 1.469063836982348676e+03
1.508609745205371610e+03 -3.505151075753655476e+01 2.462875506912107326e+01 -3.505151075753655476e+01 1.466266457272457501e+03 1.777560710354127949e+01 2.462875506912107326e+01 1.777560710354127949e+01 1.557819136231571747e+03
1.521620119995403002e+03 1.727623902147855262e+01 -1.375282331832238247e+00 1.727623902147855262e+01 1.498630059433749693e+03 2.892963593535601063e+01 -1.375282331832238247e+00 2.892963593535601063e+01 1.560868036370040045e+03
1.587330370199810432e+03 -3.259946918955672857e+01 2.948711047494700210e+01 -3.259946918955672857e+01 1.517433106308535798e+03 -4.372632085109557210e+01 2.948711047494700210e+01 -4.372632085109557210e+01 1.517104148043050827e+03
1.528332364849421765e+03 -1.485805416710020088e+00 -7.939044190461334027e-01 -1.485805416710020088e+00 1.496062997303768270e+03 4.206907760971778742e+01 -7.939044190461334027e-01 4.206907760971778742e+01 1.525405101907595963e+03
1.530349756096522697e+03 3.169332866234189083e+01 7.650055795633635114e+01 3.169332866234189083e+01 1.538442911731334561e+03 -3.416403634193972039e+01 7.650055795633635114e+01 -3.416403634193972039e+01 1.541240038640584316e+03
1.549524830852321429e+03 3.219735005539982353e+01 1.781628968159414406e-01 3.219735005539982353e+01 1.501058240227441274e+03 -3.102743943274547789e+01 1.781628968159414406e-01 -3.102743943274547789e+01 1.509239442203329872e+03
1.504989818387212154e+03 -5.768548345452883552e+01 -4.740644925016467681e+01 -5.768548345452883552e+01 1.474656226543393359e+03 -1.625159428797787697e+01 -4.740644925016467681e+01 -1.625159428797787697e+01 1.607434920220085587e+03
1.576386566210604315e+03 -1.228561762178386019e+01 8.626883870681105293e+01 -1.228561762178386019e+01 1.513187277062096882e+03 2.244512110620367906e+01 8.626883870681105293e+01 2.244512110620367906e+01 1.477206491059076598e+03
1.549312721736895128e+03 -3.024149198234731628e+01 4.290679894970375585e+01 -3.024149198234731628e+01 1.436347786681869820e+03 4.454907519293748663e+01 4.290679894970375585e+01 4.454907519293748663e+01 1.589716385332923210e+03
1.558276252292104800e+03 -4.905648766046938647e+01 5.611706863346304530e+00 -4.905648766046938647e+01 1.508599492921141291e+03 -8.312569761757263365e+00 5.611706863346304530e+00 -8.312569761757263365e+00 1.492729738899243102e+03
1.582288377126620389e+03 -8.138121130759607524e+00 6.426143868826204653e+01 -8.138121130759607524e+00 1.513933826293374295e+03 5.735978215098809230e+00 6.426143868826204653e+01 5.735978215098809230e+00 1.472773431640701119e+03
1.561739609530618281e+03 -1.364015365171942129e+01 -4.757846129672242519e+00 -1.364015365171942129e+01 1.469986759104540170e+03 1.044496246540512807e+01 -4.757846129672242519e+00 1.044496246540512807e+01 1.501579506324844942e+03
1.503414458468470002e+03 4.730183357818173562e+01 -1.592621101030146313e+01 4.730183357818173562e+01 1.489364482321624564e+03 -1.089984372906038779e+00 -1.592621101030146313e+01 -1.089984372906038779e+00 1.525394789368956708e+03
1.498731050523332215e+03 -3.293718509483279888e+01 -1.368185448233326440e+00 -3.293718509483279888e+01 1.530823363626041100e+03 -1.086110870442889009e+00 -1.368185448233326440e+00 -1.086110870442889009e+00 1.607377858578838413e+03
1.520985617139417400e+03 -8.249347323495086926e+01 5.917757635637276081e+01 -8.249347323495086926e+01 1.511976865640922824e+03 1.658250375189374992e+01 5.917757635637276081e+01 1.658250375189374992e+01 1.511929478883654383e+03
1.514100535415337617e+03 -5.336658437809499844e+01 1.408777151669163175e+01 -5.336658437809499844e+01 1.536672981801835476e+03 4.634295136270927706e+00 1.408777151669163175e+01 4.634295136270927706e+00 1.515058859137948048e+03
1.509641233388060982e+03 -1.963289917193607081e+01 2.023977723057095446e+01 -1.963289917193607081e+01 1.491106692095447670e+03 -4.156990732459796334e+01 2.023977723057095446e+01 -4.156990732459796334e+01 1.480483850905484815e+03
1.534750992193872435e+03 -2.340247463867881095e+01 1.767406263300179914e+00 -2.340247463867881095e+01 1.562623799670544713e+03 1.835059487669602518e+01 1.767406263300179914e+00 1.835059487669602518e+01 1.512062295058545260e+03
1.497243699165411272e+03 -4.286898988732834681e+01 -3.812883342313679691e+01 -4.286898988732834681e+01 1.557246646090523200e+03 -5.300428800318924161e+00 -3.812883342313679691e+01 -5.300428800318924161e+00 1.511433331220188393e+03
1.533612608891068248e+03 -1.874812484169452986e+01 1.209462075067173359e+01 -1.874812484169452986e+01 1.465572763793755030e+03 1.515190399197964410e+01 1.209462075067173359e+01 1.515190399197964410e+01 1.522931627869978001e+03
1.534388540256821443e+03 2.847265397846696899e+01 -6.271152059640906273e+00 2.847265397846696899e+01 1.504213314807781444e+03 -2.951182282696945691e+01 -6.271152059640906273e+00 -2.951182282696945691e+01 1.513952294702306290e+03
1.511649666157457659e+03 1.906682638357789017e+01 -2.502162990379397911e+01 1.906682638357789017e+01 1.467296849557448468e+03 5.384564760652893511e+01 -2.502162990379397911e+01 5.384564760652893511e+01 1.569261663266750475e+03
1.546396696376714772e+03 -8.995820723699003096e+00 -2.349651856605080358e+00 -8.995820723699003096e+00 1.458509113502311493e+03 1.200319032940725528e+01 -2.349651856605080358e+00 1.200319032940725528e+01 1.523364410721171453e+03
1.484669686987747809e+03 2.447735120452853153e+01 2.162110503626790248e+01 2.447735120452853153e+01 1.493751523555965832e+03 1.036955062858373822e+01 2.162110503626790248e+01 1.036955062858373822e+01 1.576517669412809255e+03
1.515208608881970804e+03 -7.444590692440695534e+01 4.878619914536258761e+01 -7.444590692440695534e+01 1.507202825596363482e+03 1.190073484280615901e+01 4.878619914536258761e+01 1.190073484280615901e+01 1.491530527666870967e+03
1.545852479846187407e+03 2.165590375420928027e+01 -8.878423197666444722e+00 2.165590375420928027e+01 1.581962191101100188e+03 4.086432684270639726e+01 -8.878423197666444722e+00 4.086432684270639726e+01 1.480733000618187589e+03
1.516590093081687201e+03 3.249945340310627984e+01 -1.859840576606022111e+01 3.249945340310627984e+01 1.487617694668936110e+03 2.409018179552288785e+01 -1.859840576606022111e+01 2.409018179552288785e+01 1.540678894143689604e+03
1.526529571060971648e+03 -1.261760103180915493e+01 -1.901325412369055812e+01 -1.261760103180915493e+01 1.583468484006662266e+03 4.083055483769252447e+01 -1.901325412369055812e+01 4.083055483769252447e+01 1.503529084856621921e+03
1.569164790769472802e+03 -1.537695998897505589e+01 2.966364629142190523e+01 -1.537695998897505589e+01 1.557304024082123533e+03 3.663815813645924901e+00 2.966364629142190523e+01 3.663815813645924901e+00 1.440038610196572336e+03
1.487488230499431438e+03 -3.553517102347970535e+01 -2.979022220503698914e+00 -3.553517102347970535e+01 1.487474539827363742e+03 8.176572469680673194e+00 -2.979022220503698914e+00 8.176572469680673194e+00 1.604374079180877061e+03
1.520187289869026017e+03 -2.446440652764011503e+01 -3.644303171154390242e+01 -2.446440652764011503e+01 1.540844609213178728e+03 4.253312419341895634e+00 -3.644303171154390242e+01 4.253312419341895634e+00 1.502177742728646535e+03
1.502218874576619783e+03 -1.163688173058567799e+01 -2.211513245364965385e+01 -1.163688173058567799e+01 1.539899996486508144e+03 -1.954785052523433464e+01 -2.211513245364965385e+01 -1.954785052523433464e+01 1.548774624725022704e+03
1.572447126994226664e+03 1.875072702931916879e+01 -6.302377666372586340e+00 1.875072702931916879e+01 1.496533570920422562e+03 -5.672783058359386388e+01 -6.302377666372586340e+00 -5.672783058359386388e+01 1.516640063850601109e+03
1.520989807875992256e+03 8.987270619788212400e+00 1.953479280054270006e+01 8.987270619788212400e+00 1.497947210213410244e+03 5.551397362086590626e+00 1.953479280054270006e+01 5.551397362086590626e+00 1.564716275970926517e+03
1.515689146591937060e+03 3.330679537567591098e+01 -3.720324169700721484e+01 3.330679537567591098e+01 1.553513565331134714e+03 -1.365940266385773683e+01 -3.720324169700721484e+01 -1.365940266385773683e+01 1.530413898377997839e+03
1.470931462810070343e+03 -8.501037656027840228e+00 -3.619987798418552671e+01 -8.501037656027840228e+00 1.525318444635985998e+03 4.812205175431795823e+01 -3.619987798418552671e+01 4.812205175431795823e+01 1.578656294484153250e+03
1.488827639243407702e+03 -1.642620872463368897e+01 -4.574223658936793413e+01 -1.642620872463368897e+01 1.582034372140406958e+03 -5.790538007850948787e+01 -4.574223658936793413e+01 -5.790538007850948787e+01 1.517556167665838075e+03
1.445723171288615276e+03 2.693176933835801634e+01 7.645984880408515316e+00 2.693176933835801634e+01 1.510483012668294805e+03 -4.439987785353449823e+01 7.645984880408515316e+00 -4.439987785353449823e+01 1.546264325918823488e+03
1.588370038904430203e+03 -2.698381679153786905e+01 5.424067718064667787e+01 -2.698381679153786905e+01 1.474092944850155845e+03 4.758057061693585155e+01 5.424067718064667787e+01 4.758057061693585155e+01 1.623767174474665353e+03
1.551524348653620336e+03 3.267386464492170006e+01 -5.615367037408935857e+01 3.267386464492170006e+01 1.451791577449625038e+03 2.942779749535139544e+01 -5.615367037408935857e+01 2.942779749535139544e+01 1.622027765257467536e+03
1.490418548967881861e+03 6.967280406519596347e+00 -2.082596185818885459e+01 6.967280406519596347e+00 1.554285395993903194e+03 -5.639219341804076180e+01 -2.082596185818885459e+01 -5.639219341804076180e+01 1.583512718109377829e+03
1.486981128085212049e+03 6.722977212498284949e+00 -3.528630945777921113e+01 6.722977212498284949e+00 1.560913394700569825e+03 4.093654066211993126e+01 -3.528630945777921113e+01 4.093654066211993126e+01 1.505898206696713260e+03
1.460807791192770082e+03 -1.503668767681178231e+01 1.077193968684620806e+01 -1.503668767681178231e+01 1.496991839596888440e+03 -1.515028036763678188e+01 1.077193968684620806e+01 -1.515028036763678188e+01 1.519533770365543660e+03
1.539249767735424030e+03 -4.307320581337244825e+00 4.121906920415313813e+00 -4.307320581337244825e+00 1.526978511515435912e+03 4.010279978668477696e+01 4.121906920415313813e+00 4.010279978668477696e+01 1.560104180227527650e+03
1.514336019971053474e+03 -1.680830008435169631e+01 4.009026353378877694e+00 -1.680830008435169631e+01 1.553958809932664963e+03 -1.324853468432384673e+01 4.009026353378877694e+00 -1.324853468432384673e+01 1.483336800717911956e+03
1.476711312050884089e+03 1.008447832079863105e+02 2.380889906386797605e+01 1.008447832079863105e+02 1.484827821901000561e+03 5.887589261607905300e+00 2.380889906386797605e+01 5.887589261607905300e+00 1.528994868843282120e+03
1.608394054846673271e+03 3.643983577653171579e+01 -4.128081313088966908e+01 3.643983577653171579e+01 1.515539139632517163e+03 -4.414585879091047715e+00 -4.128081313088966908e+01 -4.414585879091047715e+00 1.459994411634763992e+03
1.491593341359429132e+03 2.862473231355468073e+01 -9.418706340570549784e+00 2.862473231355468073e+01 1.490490817435618965e+03 1.251674433692217114e+01 -9.418706340570549784e+00 1.251674433692217114e+01 1.566336446176888558e+03
1.541620676480347583e+03 -7.806537017354255426e+00 2.523130292153915821e+00 -7.806537017354255426e+00 1.532195541125126965e+03 3.577231988985935374e+01 2.523130292153915821e+00 3.577231988985935374e+01 1.542741775571566450e+03
1.518528945121519655e+03 1.028355636596836398e+01 3.341367092967873020e+01 1.028355636596836398e+01 1.545410117660704145e+03 3.288704196716017236e+01 3.341367092967873020e+01 3.288704196716017236e+01 1.541456882656859761e+03
1.512909457510030734e+03 4.788665922057723634e+01 -4.928861445637751082e+00 4.788665922057723634e+01 1.528758578133429410e+03 -2.071951954770847237e+01 -4.928861445637751082e+00 -2.071951954770847237e+01 1.506769432653956756e+03
1.538395826189777608e+03 -1.918345018281799597e+00 -4.978966715625037232e+00 -1.918345018281799597e+00 1.509488913351406154e+03 2.814858403780990059e+01 -4.978966715625037232e+00 2.814858403780990059e+01 1.501767348113677372e+03
1.542316431499276405e+03 -2.073513633614204110e+01 6.345582006253814455e+01 -2.073513633614204110e+01 1.491314423082282474e+03 -9.695186863025892166e+00 6.345582006253814455e+01 -9.695186863025892166e+00 1.539495847412838884e+03
1.549296150900272551e+03 -9.841530557770775900e+00 -3.009362230159035034e-01 -9.841530557770775900e+00 1.480440864600269833e+03 1.601977764980733454e+01 -3.009362230159035034e-01 1.601977764980733454e+01 1.553028084712617556e+03
1.584003617173062366e+03 1.773247966522837515e+01 -3.234167167958334943e+01 1.773247966522837515e+01 1.532544220745509165e+03 2.710012740609685622e+01 -3.234167167958334943e+01 2.710012740609685622e+01 1.483871096618395086e+03
1.527488025051744899e+03 1.973164515241050410e+01 7.129433518029838979e+01 1.973164515241050410e+01 1.548370472382262506e+03 -3.850691716261393793e+01 7.129433518029838979e+01 -3.850691716261393793e+01 1.560876320222839468e+03
1.506965255175084621e+03 -2.748674628372035400e+01 5.256245820011075764e+00 -2.748674628372035400e+01 1.553559261285982529e+03 1.770414761516373048e+01 5.256245820011075764e+00 1.770414761516373048e+01 1.469530696276551225e+03
1.457779339887625838e+03 9.376450790846940109e+00 9.805187081521093972e+00 9.376450790846940109e+00 1.511214315666812354e+03 -3.194071941148189708e+01 9.805187081521093972e+00 -3.194071941148189708e+01 1.534520880361409581e+03
1.577256751112184929e+03 -3.619975245594964264e+01 -8.738774690706550885e+00 -3.619975245594964264e+01 1.510655986454102731e+03 8.354751703403309193e+00 -8.738774690706550885e+00 8.354751703403309193e+00 1.499004624219629477e+03
1.523476601260479129e+03 -1.939033982866867589e+01 2.881485737016959092e+01 -1.939033982866867589e+01 1.526744119908650418e+03 -3.372975186753401289e+01 2.881485737016959092e+01 -3.372975186753401289e+01 1.507028403287459241e+03
1.518881923858145910e+03 5.626192131287218245e+01 -2.620262279081446977e+01 5.626192131287218245e+01 1.511215360930131510e+03 -1.432412878549093449e+01 -2.620262279081446977e+01 -1.432412878549093449e+01 1.525110472273406685e+03
1.499382545089360519e+03 -1.815004218875080255e+01 2.227260263953063557e+01 -1.815004218875080255e+01 1.566305619308293672e+03 -1.078921358594205415e+01 2.227260263953063557e+01 -1.078921358594205415e+01 1.534230710870443772e+03
1.533016521378599009e+03 1.215289562714344029e+01 -3.091406564901004117e+01 1.215289562714344029e+01 1.510802762984195624e+03 1.949201341781878938e+01 -3.091406564901004117e+01 1.949201341781878938e+01 1.572338377175075948e+03
1.550385560996805225e+03 3.969648756695151093e+01 9.277765684972186122e+00 3.969648756695151093e+01 1.554549047137874595e+03 4.458861224897876241e+01 9.277765684972186122e+00 4.458861224897876241e+01 1.473681282886755980e+03
1.450080276865324322e+03 1.769919854174903051e+01 -4.708548413196003679e+01 1.769919854174903051e+01 1.511560741893236127e+03 4.209473710535483093e+01 -4.708548413196003679e+01 4.209473710535483093e+01 1.560704297539549543e+03
1.518106727626810425e+03 -2.194421897302827773e+01 -1.756593643095754587e+01 -2.194421897302827773e+01 1.551177928458379711e+03 -3.865292125611483698e+01 -1.756593643095754587e+01 -3.865292125611483698e+01 1.561743490669231960e+03
1.527209781983819539e+03 -6.570988167386239809e+00 -2.313497888355183818e+01 -6.570988167386239809e+00 1.504485132269493988e+03 6.293989151385790848e+00 -2.313497888355183818e+01 6.293989151385790848e+00 1.491761191257864994e+03
1.595222498827120717e+03 -1.369023813724473371e+01 2.366110958570947176e+01 -1.369023813724473371e+01 1.536773256322210727e+03 -1.911483103459520549e+01 2.366110958570947176e+01 -1.911483103459520549e+01 1.506369037769389251e+03
1.484543822481985671e+03 -1.756253537005897414e+01 -5.217402889284084466e+01 -1.756253537005897414e+01 1.552662100478046796e+03 -5.449390640736182689e+01 -5.217402889284084466e+01 -5.449390640736182689e+01 1.508065336328008470e+03
1.534997371491758031e+03 3.801277946714060363e+01 -5.051320514454429400e+01 3.801277946714060363e+01 1.432155449378851927e+03 2.583302100488377562e+01 -5.051320514454429400e+01 2.583302100488377562e+01 1.565842678594927975e+03
1.444569878640618754e+03 -1.107398718948794425e+02 6.820635606023570219e+00 -1.107398718948794425e+02 1.512045035888081884e+03 4.525420697415451343e+01 6.820635606023570219e+00 4.525420697415451343e+01 1.541928565866991903e+03
1.498227561363998575e+03 -1.519038699258706160e+01 -7.272249482011480026e+00 -1.519038699258706160e+01 1.524517126594051206e+03 -3.522893010851169748e+01 -7.272249482011480026e+00 -3.522893010851169748e+01 1.500386445189122242e+03
1.567711279979202118e+03 6.263731973373026563e+00 -1.240662035916489891e+01 6.263731973373026563e+00 1.588495457436576771e+03 4.100059716990317327e+01 -1.240662035916489891e+01 4.100059716990317327e+01 1.507868663324476529e+03
1.527827729004034609e+03 1.783713631833507174e+00 4.145481797722086270e+01 1.783713631833507174e+00 1.460650068765476817e+03 4.979877317767855516e+01 4.145481797722086270e+01 4.979877317767855516e+01 1.603229500336895626e+03
1.535245403518532385e+03 -1.912891182438869020e+00 -1.445137399620499252e+00 -1.912891182438869020e+00 1.542180604603232496e+03 -2.312000832029659136e+01 -1.445137399620499252e+00 -2.312000832029659136e+01 1.559659780898384724e+03
1.462638365672182999e+03 5.930386922285905804e+00 4.915068080649119509e+01 5.930386922285905804e+00 1.572635775345534284e+03 2.685162164789144157e+01 4.915068080649119509e+01 2.685162164789144157e+01 1.565804319603696058e+03
1.567415937451902664e+03 3.017020698363985431e+01 -9.269604126408570011e+00 3.017020698363985431e+01 1.503438512704723053e+03 -3.186825085642867350e+01 -9.269604126408570011e+00 -3.186825085642867350e+01 1.499455499665591333e+03
1.544486408680776549e+03 -1.014184767992328950e+01 -4.158920786795523128e+01 -1.014184767992328950e+01 1.545746565785014809e+03 6.761581190325352964e+01 -4.158920786795523128e+01 6.761581190325352964e+01 1.487492072776356281e+03
1.562597721253997861e+03 3.210237937090230531e+01 -3.480499936682915063e+01 3.210237937090230531e+01 1.449165994100920898e+03 2.399929828088176009e+01 -3.480499936682915063e+01 2.399929828088176009e+01 1.621359584491649457e+03
1.550692011185953334e+03 3.126539270939566251e+01 -8.874531222324876012e+00 3.126539270939566251e+01 1.461839065300790253e+03 3.405113737885604674e+00 -8.874531222324876012e+00 3.405113737885604674e+00 1.565154498484226224e+03
1.558299633904583516e+03 2.874354539292054511e+01 6.010582995101602322e+00 2.874354539292054511e+01 1.463671050714397325e+03 -1.192864898032069121e+01 6.010582995101602322e+00 -1.192864898032069121e+01 1.568304385087049695e+03
1.478135057984618243e+03 1.659050903487018047e+01 3.239885968904509639e+01 1.659050903487018047e+01 1.529007915813619093e+03 5.207370482229655551e+01 3.239885968904509639e+01 5.207370482229655551e+01 1.558105620646721718e+03
1.579131470856827946e+03 -3.042735488063048876e+01 2.155647334955975580e+01 -3.042735488063048876e+01 1.521879310516995929e+03 -3.860358784478975025e+01 2.155647334955975580e+01 -3.860358784478975025e+01 1.500225873326984811e+03
1.523092871206602013e+03 -1.262031638305653480e+01 2.253764606054463826e+00 -1.262031638305653480e+01 1.479463538987745324e+03 1.854594352077286246e+01 2.253764606054463826e+00 1.854594352077286246e+01 1.570173219414673440e+03
1.549605946771976505e+03 8.793435248959825756e+00 2.543335675815258412e+01 8.793435248959825756e+00 1.527798512166484898e+03 3.764367579946813436e+01 2.543335675815258412e+01 3.764367579946813436e+01 1.538430889983053930e+03
1.485185879869877681e+03 2.221234433383455453e+01 -2.921351894045066189e+01 2.221234433383455453e+01 1.567529105166494901e+03 2.560305937591279957e+01 -2.921351894045066189e+01 2.560305937591279957e+01 1.528040105399138156e+03
1.566732806235757835e+03 -7.979268859968412286e+00 3.328534859963460324e+00 -7.979268859968412286e+00 1.455606314034369234e+03 1.007186489253514416e+01 3.328534859963460324e+00 1.007186489253514416e+01 1.532439320575391775e+03
1.477668703394775321e+03 4.831718293211743998e+01 -3.375745413661386607e+01 4.831718293211743998e+01 1.571959366193337928e+03 1.832295608572081846e+01 -3.375745413661386607e+01 1.832295608572081846e+01 1.499705993510997587e+03
1.548359598094019702e+03 -9.645602484856349079e+00 -7.482141703875661243e+00 -9.645602484856349079e+00 1.559767942784692650e+03 1.488957478282419622e+01 -7.482141703875661243e+00 1.488957478282419622e+01 1.497846826456901454e+03
1.452588746507604810e+03 1.412773223056514560e+01 4.581032594698093874e+01 1.412773223056514560e+01 1.549432344876958496e+03 3.472450158928940311e+01 4.581032594698093874e+01 3.472450158928940311e+01 1.555668034864002948e+03
1.495735314848878488e+03 9.286400786477643976e+01 3.225692175967751751e+01 9.286400786477643976e+01 1.529188776355037362e+03 -1.629437287791642319e+01 3.225692175967751751e+01 -1.629437287791642319e+01 1.537850738565116671e+03
1.524335968534797075e+03 -2.008785697267969539e+01 -3.403394991975920192e+01 -2.008785697267969539e+01 1.537904762055324227e+03 -2.505795187000214597e+01 -3.403394991975920192e+01 -2.505795187000214597e+01 1.531580821568629290e+03
1.510821426477253681e+03 5.847743999583388330e+01 -4.237131726686447664e+00 5.847743999583388330e+01 1.485582493286093040e+03 4.316888345741512722e+01 -4.237131726686447664e+00 4.316888345741512722e+01 1.528136573800689121e+03
1.525053187056677871e+03 2.665877933207111639e+01 -4.458612987732168165e+01 2.665877933207111639e+01 1.597050869159419790e+03 1.791842531274566497e+01 -4.458612987732168165e+01 1.791842531274566497e+01 1.440600549560672789e+03
1.493297220911205841e+03 5.873979712719977186e+01 2.000203203634242399e+01 5.873979712719977186e+01 1.557170665229321912e+03 -1.230984343513376267e+00 2.000203203634242399e+01 -1.230984343513376267e+00 1.536782771471136584e+03
1.530908419063407337e+03 -1.019484708277196638e+01 2.061670579115474666e+01 -1.019484708277196638e+01 1.575694372261574017e+03 3.753775577555463627e+01 2.061670579115474666e+01 3.753775577555463627e+01 1.488922167464523682e+03
1.476169515106694007e+03 -2.667918271966814814e+01 2.235155787006613082e+01 -2.667918271966814814e+01 1.544736992669609663e+03 -8.251839654242457911e+00 2.235155787006613082e+01 -8.251839654242457911e+00 1.502880796295540904e+03
1.484693448992198682e+03 1.212965103574337533e+01 4.925417025288280826e+01 1.212965103574337533e+01 1.571003819953345328e+03 4.165141002797022196e+01 4.925417025288280826e+01 4.165141002797022196e+01 1.561835007588588496e+03
1.551990397947882457e+03 1.525810801910578896e+01 -3.263535976461769650e+01 1.525810801910578896e+01 1.553528883501291148e+03 4.212222396532865787e+01 -3.263535976461769650e+01 4.212222396532865787e+01 1.494335310497903492e+03
1.484316054544224016e+03 2.589491468081493863e+01 -2.171920867571017766e+01 2.589491468081493863e+01 1.566820350647856685e+03 -3.328502213721766623e+01 -2.171920867571017766e+01 -3.328502213721766623e+01 1.500888940697299404e+03
1.484621066820560827e+03 5.133140367978318608e+01 -2.873739049521785560e+01 5.133140367978318608e+01 1.550319299014066701e+03 2.876655452884341102e+01 -2.873739049521785560e+01 2.876655452884341102e+01 1.482148046978602679e+03
1.555088112063284598e+03 2.928832396581459108e+01 5.434860024000334988e+01 2.928832396581459108e+01 1.550811223404802831e+03 9.859128240897474527e+00 5.434860024000334988e+01 9.859128240897474527e+00 1.427803145564430451e+03
1.525914175660589990e+03 1.179338188250021524e+01 6.854633978883335477e-01 1.179338188250021524e+01 1.498535389251269407e+03 8.216015445199071010e+00 6.854633978883335477e-01 8.216015445199071010e+00 1.552351728720856727e+03
1.504821861887695377e+03 -1.317900606388270646e+01 4.839106689961082708e+01 -1.317900606388270646e+01 1.631611247150868621e+03 3.856949328305579350e+00 4.839106689961082708e+01 3.856949328305579350e+00 1.441862616962747097e+03
1.496992817775220601e+03 -2.163019066890102948e+01 -6.014068417727128946e+01 -2.163019066890102948e+01 1.600460765249341193e+03 -4.764278019933095010e+01 -6.014068417727128946e+01 -4.764278019933095010e+01 1.552514290072565700e+03
1.515063212199099098e+03 -1.067287296054934842e+01 -2.533559137555513985e+01 -1.067287296054934842e+01 1.545833865204917856e+03 4.986531338812626046e+01 -2.533559137555513985e+01 4.986531338812626046e+01 1.509195221457337084e+03
1.514995491011125750e+03 3.879841675582415661e+01 3.409276763205288319e+01 3.879841675582415661e+01 1.537461062038931686e+03 -4.237568032364427495e+01 3.409276763205288319e+01 -4.237568032364427495e+01 1.574539452915865922e+03
1.513629878307776380e+03 2.641369699177184671e+00 1.792042793455989980e+01 2.641369699177184671e+00 1.517141758799532681e+03 -4.167737827533004946e+01 1.792042793455989980e+01 -4.167737827533004946e+01 1.533441077630227028e+03
1.537765916939870522e+03 2.906698558168272228e+01 -2.256763442170863954e+01 2.906698558168272228e+01 1.484285989830674225e+03 3.803988064481142573e+01 -2.256763442170863954e+01 3.803988064481142573e+01 1.572720105145695470e+03
1.544416257604054408e+03 -8.010696836068561311e+00 -3.522210981348165859e+01 -8.010696836068561311e+00 1.522235508730815354e+03 3.561498789352690153e+01 -3.522210981348165859e+01 3.561498789352690153e+01 1.545039029399982610e+03
1.519254545482792537e+03 -2.435962051877285006e+01 -4.262513761881307062e+01 -2.435962051877285006e+01 1.520743906233084772e+03 -1.162667255368682717e+01 -4.262513761881307062e+01 -1.162667255368682717e+01 1.547776762467605522e+03
1.486315800852683424e+03 3.828120809924134704e+01 3.339976147347619673e+01 3.828120809924134704e+01 1.507085258477599609e+03 -2.710220436872992522e+01 3.339976147347619673e+01 -2.710220436872992522e+01 1.536898328155190029e+03
1.541259978025193732e+03 -4.675179697252481503e+01 5.211769157001024411e+01 -4.675179697252481503e+01 1.506637731714348092e+03 -3.647846805568416340e+00 5.211769157001024411e+01 -3.647846805568416340e+00 1.527754741834725337e+03
1.519791012645981255e+03 -9.858967496800895347e+00 -5.020221058973910289e+01 -9.858967496800895347e+00 1.525876065422187139e+03 4.275009004515614208e+01 -5.020221058973910289e+01 4.275009004515614208e+01 1.496731250474520493e+03
1.485717214345409730e+03 6.679159036156292473e+01 -1.182953797657668282e+01 6.679159036156292473e+01 1.495503426055324553e+03 1.067279534641558447e+00 -1.182953797657668282e+01 1.067279534641558447e+00 1.553970302956072601e+03
1.495216960561662518e+03 -1.547136900994982689e+01 -4.612882196880112673e+01 -1.547136900994982689e+01 1.592251409379834058e+03 -5.790704790345427710e+01 -4.612882196880112673e+01 -5.790704790345427710e+01 1.522384949721534667e+03
1.510280003089871570e+03 1.045239578942523551e+01 1.099247862533436049e+01 1.045239578942523551e+01 1.529412155595455260e+03 -1.466015101434114953e+01 1.099247862533436049e+01 -1.466015101434114953e+01 1.554351364537580139e+03
1.529574115744771234e+03 -4.616423649670341689e+01 -2.200869719191143048e+01 -4.616423649670341689e+01 1.511188277805186317e+03 2.696473422547416021e+01 -2.200869719191143048e+01 2.696473422547416021e+01 1.520935851286147681e+03
1.546432500823291093e+03 -6.096195477240107152e+01 1.031080289758345181e+01 -6.096195477240107152e+01 1.549891582858713264e+03 3.495228968659237268e+01 1.031080289758345181e+01 3.495228968659237268e+01 1.529993507010944086e+03
1.494589482259958459e+03 1.133894246176329119e+02 2.906315859002166846e+01 1.133894246176329119e+02 1.537878183500977002e+03 -7.181872536985559607e-01 2.906315859002166846e+01 -7.181872536985559607e-01 1.523435202066083320e+03