1.117600000000000016e+01 0.000000000000000000e+00 0.000000000000000000e+00 0.000000000000000000e+00 1.117600000000000016e+01 0.000000000000000000e+00 0.000000000000000000e+00 0.000000000000000000e+00 1.117600000000000016e+01
1.142699999999999960e+01 0.000000000000000000e+00 0.000000000000000000e+00 0.000000000000000000e+00 1.142699999999999960e+01 0.000000000000000000e+00 0.000000000000000000e+00 0.000000000000000000e+00 1.142699999999999960e+01
1.116399999999999970e+01 0.000000000000000000e+00 0.000000000000000000e+00 0.000000000000000000e+00 1.116399999999999970e+01 0.000000000000000000e+00 0.000000000000000000e+00 0.000000000000000000e+00 1.116399999999999970e+01
1.151699999999999946e+01 0.000000000000000000e+00 0.000000000000000000e+00 0.000000000000000000e+00 1.151699999999999946e+01 0.000000000000000000e+00 0.000000000000000000e+00 0.000000000000000000e+00 1.151699999999999946e+01
1.150500000000000078e+01 0.000000000000000000e+00 0.000000000000000000e+00 0.000000000000000000e+00 1.150500000000000078e+01 0.000000000000000000e+00 0.000000000000000000e+00 0.000000000000000000e+00 1.150500000000000078e+01
1.150600000000000023e+01 0.000000000000000000e+00 0.000000000000000000e+00 0.000000000000000000e+00 1.150600000000000023e+01 0.000000000000000000e+00 0.000000000000000000e+00 0.000000000000000000e+00 1.150600000000000023e+01
1.053999999999999915e+01 0.000000000000000000e+00 0.000000000000000000e+00 0.000000000000000000e+00 1.053999999999999915e+01 0.000000000000000000e+00 0.000000000000000000e+00 0.000000000000000000e+00 1.053999999999999915e+01
1.054899999999999949e+01 0.000000000000000000e+00 0.000000000000000000e+00 0.000000000000000000e+00 1.054899999999999949e+01 0.000000000000000000e+00 0.000000000000000000e+00 0.000000000000000000e+00 1.054899999999999949e+01
1.151999999999999957e+01 0.000000000000000000e+00 0.000000000000000000e+00 0.000000000000000000e+00 1.151999999999999957e+01 0.000000000000000000e+00 0.000000000000000000e+00 0.000000000000000000e+00 1.151999999999999957e+01
1.150999999999999979e+01 0.000000000000000000e+00 0.000000000000000000e+00 0.000000000000000000e+00 1.150999999999999979e+01 0.000000000000000000e+00 0.000000000000000000e+00 0.000000000000000000e+00 1.150999999999999979e+01
1.150799999999999912e+01 0.000000000000000000e+00 0.000000000000000000e+00 0.000000000000000000e+00 1.150799999999999912e+01 0.000000000000000000e+00 0.000000000000000000e+00 0.000000000000000000e+00 1.150799999999999912e+01
1.052200000000000024e+01 0.000000000000000000e+00 0.000000000000000000e+00 0.000000000000000000e+00 1.052200000000000024e+01 0.000000000000000000e+00 0.000000000000000000e+00 0.000000000000000000e+00 1.052200000000000024e+01
1.151800000000000068e+01 0.000000000000000000e+00 0.000000000000000000e+00 0.000000000000000000e+00 1.151800000000000068e+01 0.000000000000000000e+00 0.000000000000000000e+00 0.000000000000000000e+00 1.151800000000000068e+01
1.141099999999999959e+01 0.000000000000000000e+00 0.000000000000000000e+00 0.000000000000000000e+00 1.141099999999999959e+01 0.000000000000000000e+00 0.000000000000000000e+00 0.000000000000000000e+00 1.141099999999999959e+01
1.117300000000000004e+01 0.000000000000000000e+00 0.000000000000000000e+00 0.000000000000000000e+00 1.117300000000000004e+01 0.000000000000000000e+00 0.000000000000000000e+00 0.000000000000000000e+00 1.117300000000000004e+01
1.054899999999999949e+01 0.000000000000000000e+00 0.000000000000000000e+00 0.000000000000000000e+00 1.054899999999999949e+01 0.000000000000000000e+00 0.000000000000000000e+00 0.000000000000000000e+00 1.054899999999999949e+01
1.142200000000000060e+01 0.000000000000000000e+00 0.000000000000000000e+00 0.000000000000000000e+00 1.142200000000000060e+01 0.000000000000000000e+00 0.000000000000000000e+00 0.000000000000000000e+00 1.142200000000000060e+01
1.152299999999999969e+01 0.000000000000000000e+00 0.000000000000000000e+00 0.000000000000000000e+00 1.152299999999999969e+01 0.000000000000000000e+00 0.000000000000000000e+00 0.000000000000000000e+00 1.152299999999999969e+01
1.151900000000000013e+01 0.000000000000000000e+00 0.000000000000000000e+00 0.000000000000000000e+00 1.151900000000000013e+01 0.000000000000000000e+00 0.000000000000000000e+00 0.000000000000000000e+00 1.151900000000000013e+01
1.116999999999999993e+01 0.000000000000000000e+00 0.000000000000000000e+00 0.000000000000000000e+00 1.116999999999999993e+01 0.000000000000000000e+00 0.000000000000000000e+00 0.000000000000000000e+00 1.116999999999999993e+01
1.141499999999999915e+01 0.000000000000000000e+00 0.000000000000000000e+00 0.000000000000000000e+00 1.141499999999999915e+01 0.000000000000000000e+00 0.000000000000000000e+00 0.000000000000000000e+00 1.141499999999999915e+01
1.142399999999999949e+01 0.000000000000000000e+00 0.000000000000000000e+00 0.000000000000000000e+00 1.142399999999999949e+01 0.000000000000000000e+00 0.000000000000000000e+00 0.000000000000000000e+00 1.142399999999999949e+01
1.141999999999999993e+01 0.000000000000000000e+00 0.000000000000000000e+00 0.000000000000000000e+00 1.141999999999999993e+01 0.000000000000000000e+00 0.000000000000000000e+00 0.000000000000000000e+00 1.141999999999999993e+01
1.050200000000000067e+01 0.000000000000000000e+00 0.000000000000000000e+00 0.000000000000000000e+00 1.050200000000000067e+01 0.000000000000000000e+00 0.000000000000000000e+00 0.000000000000000000e+00 1.050200000000000067e+01
1.117800000000000082e+01 0.000000000000000000e+00 0.000000000000000000e+00 0.000000000000000000e+00 1.117800000000000082e+01 0.000000000000000000e+00 0.000000000000000000e+00 0.000000000000000000e+00 1.117800000000000082e+01
1.116799999999999926e+01 0.000000000000000000e+00 0.000000000000000000e+00 0.000000000000000000e+00 1.116799999999999926e+01 0.000000000000000000e+00 0.000000000000000000e+00 0.000000000000000000e+00 1.116799999999999926e+01
1.142800000000000082e+01 0.000000000000000000e+00 0.000000000000000000e+00 0.000000000000000000e+00 1.142800000000000082e+01 0.000000000000000000e+00 0.000000000000000000e+00 0.000000000000000000e+00 1.142800000000000082e+01
1.051299999999999990e+01 0.000000000000000000e+00 0.000000000000000000e+00 0.000000000000000000e+00 1.051299999999999990e+01 0.000000000000000000e+00 0.000000000000000000e+00 0.000000000000000000e+00 1.051299999999999990e+01
1.117600000000000016e+01 0.000000000000000000e+00 0.000000000000000000e+00 0.000000000000000000e+00 1.117600000000000016e+01 0.000000000000000000e+00 0.000000000000000000e+00 0.000000000000000000e+00 1.117600000000000016e+01
1.053800000000000026e+01 0.000000000000000000e+00 0.000000000000000000e+00 0.000000000000000000e+00 1.053800000000000026e+01 0.000000000000000000e+00 0.000000000000000000e+00 0.000000000000000000e+00 1.053800000000000026e+01
1.150399999999999956e+01 0.000000000000000000e+00 0.000000000000000000e+00 0.000000000000000000e+00 1.150399999999999956e+01 0.000000000000000000e+00 0.000000000000000000e+00 0.000000000000000000e+00 1.150399999999999956e+01
1.116999999999999993e+01 0.000000000000000000e+00 0.000000000000000000e+00 0.000000000000000000e+00 1.116999999999999993e+01 0.000000000000000000e+00 0.000000000000000000e+00 0.000000000000000000e+00 1.116999999999999993e+01
1.051699999999999946e+01 0.000000000000000000e+00 0.000000000000000000e+00 0.000000000000000000e+00 1.051699999999999946e+01 0.000000000000000000e+00 0.000000000000000000e+00 0.000000000000000000e+00 1.051699999999999946e+01
1.116799999999999926e+01 0.000000000000000000e+00 0.000000000000000000e+00 0.000000000000000000e+00 1.116799999999999926e+01 0.000000000000000000e+00 0.000000000000000000e+00 0.000000000000000000e+00 1.116799999999999926e+01
1.141300000000000026e+01 0.000000000000000000e+00 0.000000000000000000e+00 0.000000000000000000e+00 1.141300000000000026e+01 0.000000000000000000e+00 0.000000000000000000e+00 0.000000000000000000e+00 1.141300000000000026e+01
1.141699999999999982e+01 0.000000000000000000e+00 0.000000000000000000e+00 0.000000000000000000e+00 1.141699999999999982e+01 0.000000000000000000e+00 0.000000000000000000e+00 0.000000000000000000e+00 1.141699999999999982e+01
