4.490311000000000163e+00 8.460160999999999376e+00 1.639801000000000064e+00 9.525261000000000422e+00 9.186961000000000155e+00 9.467760999999999427e+00 5.000701000000000285e+00 1.017426099999999956e+01 2.871121000000000034e+00 5.764381000000000199e+00 1.090386099999999914e+01 6.038101000000000163e+00 7.080351000000000283e+00 3.384701000000000182e+00 5.108761000000000330e+00 4.743130999999999986e+00 5.242850999999999928e+00 2.922020999999999979e+00 1.008876099999999987e+01 6.282661000000000051e+00 7.093570999999999849e+00 5.320361000000000118e+00 2.792910000000000115e-01 9.563160999999999135e+00 1.112566099999999913e+01 4.353909999999999725e-01 4.267560999999999716e+00 1.943910999999999945e+00 8.664761000000000379e+00 3.114780999999999800e+00 2.735660999999999898e+00 5.129501000000000310e+00 1.716261000000000037e+00 9.364760999999999669e+00 1.437910000000000021e-01 5.976231000000000293e+00 7.705860999999999628e+00 7.436100999999999850e+00 4.512921000000000404e+00 5.298161000000000342e+00 8.600160999999999945e+00 9.089361000000000246e+00 7.424070999999999643e+00 3.111511000000000138e+00 9.860860999999999876e+00 2.598120999999999903e+00 3.637360999999999844e+00 4.540191000000000088e+00 3.858300999999999981e+00 1.404250999999999916e+00 9.310999999999999832e-03 6.477020999999999695e+00 5.507511000000000045e+00 4.677560999999999858e+00 1.013366100000000003e+01 6.138751000000000069e+00 9.343761000000000649e+00 9.257960999999999885e+00 6.323470999999999620e+00 5.315870999999999569e+00 4.412990999999999886e+00 4.434270999999999852e+00 6.080841000000000385e+00 1.769781000000000049e+00 7.195110999999999812e+00 7.849361000000000033e+00 1.003201000000000009e+00 5.310531000000000112e+00 6.856640999999999764e+00 4.547940999999999789e+00 1.007441000000000031e+00 4.385210999999999970e+00 3.815810000000000035e-01 5.435190999999999661e+00 1.031066099999999963e+01 7.853861000000000203e+00 8.424360999999999322e+00 7.390721000000000096e+00 1.111486099999999944e+01 8.154460999999999515e+00 1.064856100000000083e+01 1.183551000000000020e+00 2.033110999999999891e+00 6.085710999999999871e+00 5.941710999999999743e+00 7.255410999999999611e+00 3.152441000000000049e+00 2.280660999999999827e+00 1.339890999999999943e+00 1.898020999999999958e+00 8.083460999999999785e+00 3.932720999999999911e+00 7.757660999999999696e+00 2.886500999999999983e+00 5.816511000000000209e+00 1.076016100000000009e+01 3.507470999999999783e+00 5.617760999999999783e+00 7.802061000000000135e+00 3.464191000000000020e+00 1.014426100000000019e+01 5.750150999999999790e+00 9.737909999999999622e-01 1.105936100000000089e+01 7.783261000000000429e+00 1.825730999999999993e+00 3.851661000000000001e+00 8.125861000000000445e+00 6.646631000000000178e+00 9.707561000000000107e+00 1.025446099999999916e+01 9.663560999999999623e+00 2.594330999999999943e+00 3.426340999999999859e+00 5.407210000000000072e-01 6.868761000000000116e+00 5.181051000000000073e+00 7.216851000000000127e+00 2.592510000000000092e-01 8.211110000000000353e-01 5.907830999999999833e+00 1.933880999999999961e+00 5.987451000000000079e+00 9.263161000000000200e+00 2.493201000000000001e+00 5.586241000000000234e+00 6.293440999999999619e+00 9.181160999999999461e+00 4.488761000000000223e+00 5.866680999999999813e+00 6.136871000000000187e+00 8.633661000000000030e+00 4.349351000000000411e+00 3.077390999999999988e+00 3.113411000000000151e+00 1.022496100000000041e+01 7.222711000000000325e+00 1.373401000000000094e+00 2.224371000000000098e+00 1.028886100000000070e+01 1.373801000000000050e+00 1.032506099999999982e+01 1.102326099999999975e+01 1.028909999999999964e-01 1.000216099999999919e+01 9.153161000000000769e+00 6.980201000000000100e+00 7.430610999999999855e+00 1.655440999999999940e+00 3.859391000000000016e+00 1.055646100000000054e+01 1.638900999999999941e+00 7.303520999999999930e+00 8.805061000000000249e+00 9.502461000000000269e+00 4.516170999999999935e+00 2.774681000000000175e+00 5.751451000000000313e+00 5.286131000000000135e+00 5.094680999999999571e+00 1.538011000000000017e+00 1.938490999999999964e+00 1.398590999999999918e+00 1.082006100000000082e+01 5.375821000000000183e+00 1.056696099999999916e+01 3.676680999999999866e+00 2.645310000000000161e-01 4.669691000000000258e+00 1.049156100000000080e+01 6.939809999999999590e-01 3.190390999999999977e+00 8.219761000000000095e+00 6.965990999999999822e+00 7.344551000000000052e+00 2.416450999999999905e+00 1.685421000000000058e+00 4.665850999999999971e+00 2.159361000000000086e+00 8.246261000000000507e+00 7.012960999999999778e+00 1.751681000000000044e+00 7.954861000000000182e+00 9.143060999999999439e+00 5.590760999999999648e+00 8.305099999999999982e-02 3.554501000000000133e+00 2.193451000000000040e+00 6.052120999999999640e+00 1.085296100000000052e+01 1.117541600000000024e+01 2.138590999999999909e+00 3.745910000000000073e-01 3.255400999999999989e+00 4.308211000000000013e+00 6.691301000000000165e+00 5.075290999999999997e+00 1.062266100000000080e+01 1.899030999999999914e+00 7.240560999999999581e+00 9.947661000000000087e+00 6.167981000000000158e+00 4.804210999999999565e+00 6.691030999999999729e+00 2.357620999999999967e+00 1.761301000000000005e+00 8.170260999999999996e+00 2.002981000000000122e+00 9.235661000000000342e+00 9.029360999999999748e+00 9.929660999999999405e+00 2.785651000000000099e+00 9.142360999999999294e+00 7.430301000000000045e+00 1.052386100000000013e+01 7.050371000000000166e+00 8.512560999999999822e+00 4.670391000000000403e+00 3.535760999999999932e+00 1.054240999999999984e+00 2.678650999999999893e+00 1.014406100000000066e+01 1.660250999999999921e+00 3.224150999999999989e+00 2.466371000000000091e+00 8.554760999999999171e+00 7.799361000000000210e+00 2.486771000000000065e+00 7.889261000000000301e+00 6.083230999999999611e+00 7.691260999999999903e+00 3.074091000000000129e+00 7.046280999999999572e+00 3.389911000000000119e+00 1.051409999999999983e-01 7.300631000000000093e+00 2.869460999999999817e+00 4.082360999999999684e+00 1.017186099999999982e+01 7.872260999999999953e+00 7.398251000000000133e+00 8.904260999999999981e+00 9.263609999999999900e-01 8.730060999999999183e+00 1.658331000000000000e+00 1.087226099999999995e+01 1.025586099999999945e+01 3.830731000000000108e+00 6.991741000000000206e+00 7.603861000000000203e+00 5.040991000000000000e+00 1.622041000000000066e+00 3.114891000000000076e+00 3.684581000000000106e+00 1.117556100000000008e+01 4.452409999999999979e-01 5.178441000000000294e+00 1.689041000000000015e+00 9.779460999999999515e+00 9.419461000000000084e+00 1.181691000000000047e+00 9.699560999999999211e+00 1.934450999999999921e+00 1.590910999999999964e+00 1.057860999999999940e+00 4.812109999999999999e-01 1.109886099999999942e+01 2.037071000000000076e+00 8.207960999999999174e+00 9.081810000000000160e-01 8.237161000000000399e+00 7.339420999999999751e+00 9.661360999999999422e+00 2.789820999999999884e+00 1.098246100000000069e+01 3.558581000000000216e+00 4.182870999999999562e+00 7.756160999999999639e+00 1.069406099999999959e+01 9.322310000000000318e-01 8.865660999999999348e+00 6.514530999999999850e+00 5.386471000000000231e+00 3.084770999999999930e+00 1.031206099999999992e+01 7.925961000000000034e+00 1.023209999999999953e-01 9.341461000000000681e+00 2.868930999999999898e+00 1.110586100000000087e+01 9.637860999999999123e+00 5.638681000000000054e+00 4.041881000000000057e+00 1.346621000000000068e+00 7.627360999999999613e+00 1.071286100000000019e+01 3.027700999999999976e+00 6.075670999999999822e+00 6.981021000000000143e+00 6.943110000000000115e-01 4.211960999999999622e+00 4.514840999999999660e+00 9.275361000000000189e+00 4.562140999999999558e+00 7.653361000000000303e+00 5.234351000000000198e+00 1.116850600000000071e+01 9.102460999999999913e+00 4.300190999999999875e+00 1.074526099999999929e+01 5.151251000000000246e+00 3.746300999999999881e+00 1.030616099999999946e+01 2.554009999999999891e-01 9.120361000000000828e+00 5.644290999999999947e+00 8.006660999999999362e+00 7.232060999999999851e+00 5.565420999999999729e+00 4.260400999999999883e+00 1.109976100000000088e+01 1.704710000000000114e-01 4.502920999999999729e+00 4.694530999999999565e+00 4.715950999999999560e+00 1.962690999999999963e+00 6.872360999999999720e+00 8.726860999999999535e+00 6.137251000000000012e+00 6.550610999999999962e+00 9.343061000000000504e+00 1.015116100000000010e+01 1.754509999999999958e-01 9.174061000000000021e+00 6.623151000000000010e+00 8.526010000000000533e-01 2.299631000000000203e+00 1.000836100000000073e+01 2.764870999999999857e+00 5.870480999999999838e+00 2.875391000000000030e+00 5.053550999999999682e+00 7.980660999999999561e+00 2.837100000000000039e-02 1.829811000000000076e+00 2.141481000000000190e+00 3.678310000000000191e-01 8.427160999999999902e+00 4.138461000000000389e+00 2.622660999999999909e+00 1.079586100000000037e+01 2.924790999999999919e+00 9.292761000000000493e+00 7.994061000000000305e+00 5.381711000000000134e+00 7.430050999999999739e+00 8.469661000000000328e+00 8.995860999999999663e+00 7.259720999999999869e+00 4.456051000000000428e+00 2.457751000000000019e+00 6.062530999999999892e+00 7.790709999999999580e-01 9.340460999999999459e+00 4.346760999999999875e+00 4.688309999999999977e-01 3.201410000000000089e-01 6.674731000000000414e+00 1.586661000000000099e+00 4.189211000000000240e+00 1.094476099999999974e+01 8.994360999999999606e+00 1.055106100000000069e+01 4.913641000000000147e+00 2.470921000000000145e+00 2.936780999999999864e+00 4.521071000000000062e+00 8.553860999999999493e+00 9.919361000000000317e+00 8.628510000000000346e-01 1.041726099999999988e+01 5.497441000000000244e+00 8.044261000000000550e+00 4.220581000000000138e+00 5.116730999999999696e+00 6.813850999999999658e+00 1.094016099999999980e+01 5.856240999999999808e+00 5.932271000000000072e+00 3.515960999999999892e+00 5.695280999999999594e+00 1.297960999999999920e+00 8.686161000000000243e+00 5.123440999999999690e+00 4.345809999999999951e-01 1.087886100000000056e+01 5.681810000000000471e-01 2.807631000000000210e+00 3.098561000000000121e+00 4.728420999999999985e+00 4.178080999999999712e+00 3.720581000000000138e+00 2.215291000000000121e+00 7.562530999999999892e+00 2.285160999999999998e+00 7.166241000000000305e+00 7.740761000000000003e+00 4.899609999999999799e-01 1.054586100000000037e+01 9.930960999999999927e+00 2.168121000000000187e+00 8.505860999999999450e+00 2.204321000000000197e+00 9.389809999999999546e-01 8.888961000000000112e+00 6.187390999999999863e+00 1.005736100000000022e+01 9.963361000000000800e+00 9.055260999999999783e+00 4.820781000000000205e+00 1.511981000000000019e+00 3.024211000000000205e+00 5.087341000000000335e+00 1.634791000000000105e+00 4.163781000000000176e+00 6.876540999999999570e+00 6.957531000000000354e+00 2.444650999999999907e+00 3.011871000000000187e+00 7.281520999999999688e+00 4.420141000000000098e+00 4.215730999999999895e+00 7.050161000000000122e+00 1.861070999999999920e+00 6.666871000000000436e+00 7.927061000000000135e+00 7.333630999999999567e+00 8.370760999999999896e+00 2.432450999999999919e+00 1.021290999999999949e+00 3.198990999999999918e+00 5.123740999999999879e+00 9.285660999999999277e+00 7.785261000000000209e+00 2.439541000000000182e+00 4.966351000000000404e+00 4.334171000000000440e+00 4.925771000000000122e+00 7.168191000000000201e+00 6.363811000000000107e+00 9.997161000000000186e+00 1.048866100000000046e+01 6.880260999999999960e+00 7.125850999999999935e+00 1.004266100000000073e+01 2.950010000000000132e-01 6.652001000000000275e+00 5.993991000000000291e+00 9.706460999999999117e+00 6.382011000000000323e+00 1.483271000000000006e+00 1.182771000000000017e+00 6.475061000000000178e+00 2.339630999999999794e+00 1.046036100000000069e+01 1.910620999999999903e+00 7.950760999999999967e+00 6.724491000000000440e+00 4.240060999999999858e+00 1.089846099999999929e+01 3.793630999999999975e+00 9.859861000000000431e+00 3.506509999999999905e-01 4.735890999999999629e+00 3.263771000000000200e+00 6.980971000000000259e+00 9.948760999999999299e+00 8.657560999999999396e+00 8.482260999999999385e+00 1.015436099999999975e+01 6.566610999999999976e+00 5.880541000000000018e+00 7.438820999999999906e+00 5.100391000000000119e+00 5.247270999999999574e+00 1.616560999999999915e+00 2.247411000000000048e+00 9.990961000000000425e+00 1.005836099999999966e+01 1.112966100000000047e+01 8.657061000000000561e+00 7.438940999999999804e+00 3.481341000000000019e+00 5.375871000000000066e+00 6.489421000000000106e+00 1.086196100000000087e+01 4.943630999999999887e+00 9.320261000000000351e+00 3.748781000000000141e+00 6.644261000000000195e+00 4.691751000000000005e+00 3.648680999999999841e+00 8.824661000000000755e+00 5.766211000000000197e+00 9.857160999999999618e+00 7.538501000000000118e+00 2.715720999999999830e+00 7.782161000000000328e+00 9.672160999999999120e+00 8.003560999999999481e+00 8.964361000000000246e+00 8.401460999999999402e+00 6.675861000000000267e+00 7.796960999999999586e+00 6.368110000000000159e-01 1.069836100000000023e+01 9.361060999999999410e+00 1.473100999999999994e+00 6.552081000000000266e+00 1.529111000000000109e+00 4.743851000000000262e+00 2.344341000000000008e+00 9.439761000000000735e+00 3.535670999999999786e+00 8.137660999999999589e+00 2.546961000000000030e+00 1.047446099999999980e+01 4.832321000000000311e+00 6.402500999999999998e+00 9.793860999999999706e+00 3.202191000000000010e+00 1.023520999999999903e+00 1.003371000000000013e+00 5.143551000000000428e+00 7.315720999999999918e+00 7.541061000000000014e+00 3.005180999999999880e+00 4.900630999999999737e+00 1.810121000000000091e+00 3.372030999999999779e+00 9.215761000000000536e+00 1.050816099999999942e+01 9.116160999999999959e+00 4.268900999999999613e+00 8.886860999999999677e+00 9.931860999999999606e+00 2.264100000000000140e-02 2.843761000000000205e+00 6.851261000000000045e+00 1.666651000000000105e+00 2.453530999999999906e+00 1.374171000000000031e+00 8.388161000000000200e+00 5.087861000000000189e+00 8.358161000000000840e+00 7.126700999999999731e+00 3.911609999999999809e-01 3.906090999999999980e+00 1.077796099999999946e+01 8.834661000000000541e+00 9.567761000000000848e+00 7.088880999999999766e+00 3.811741000000000046e+00 1.496631000000000045e+00 4.919810000000000016e-01 8.559760999999999953e+00 3.115950999999999915e+00 9.378961000000000325e+00 3.763551000000000091e+00 5.980221000000000231e+00 8.026460999999999402e+00 9.439009999999999900e-01 8.330861000000000516e+00 5.617970999999999826e+00 7.383410000000000251e-01 5.236551000000000400e+00 3.367090999999999834e+00 1.033936100000000025e+01 5.958210000000000450e-01 3.033410000000000273e-01 7.592809999999999837e-01 3.013891000000000098e+00 8.078461000000000780e+00 2.281941000000000219e+00 4.873221000000000025e+00 3.467310000000000114e-01 1.050756100000000082e+01 1.094666100000000064e+01 1.055116100000000046e+01 8.395661000000000485e+00 6.919610000000000483e-01 6.541361000000000203e+00 1.077636099999999963e+01 9.408761000000000152e+00 8.179261000000000337e+00 5.667920999999999765e+00 2.611911000000000094e+00 8.759261000000000408e+00 2.516690999999999789e+00 9.900361000000000189e+00 7.061830999999999747e+00 5.864030999999999771e+00 7.305810000000000359e-01 7.377201000000000342e+00 4.031841000000000008e+00 6.477200999999999986e+00 3.230071000000000137e+00 7.039081000000000365e+00 7.882461000000000162e+00 3.820200999999999958e+00 1.096756099999999989e+01 6.743641000000000219e+00 1.955940999999999930e+00 3.544931000000000054e+00 1.050126099999999951e+01 1.089536099999999941e+01 6.760190999999999839e+00 1.045126100000000058e+01 6.805100999999999623e+00 8.185161000000000797e+00 6.665030999999999928e+00 5.262809999999999988e-01 1.029676100000000005e+01 4.445711000000000190e+00 1.020516100000000037e+01 6.912660999999999945e+00 8.278560999999999837e+00 6.156850999999999630e+00 1.093376100000000051e+01 7.258860999999999564e+00 7.624560999999999922e+00 8.850160999999999945e+00 4.859920999999999935e+00 1.028426100000000076e+01 1.538151000000000046e+00 8.610561000000000575e+00 7.070001000000000424e+00 6.587981000000000087e+00 5.272621000000000002e+00 5.404371000000000258e+00 7.371440999999999910e+00 1.901540999999999926e+00 3.636241000000000057e+00 3.478111000000000175e+00 5.545990999999999893e+00 5.546790999999999805e+00 9.762361000000000288e+00 5.410440999999999612e+00 4.356809999999999850e-01 8.730510000000000215e-01 7.074190999999999896e+00 2.702910000000000035e-01 1.064076099999999947e+01 8.816660999999999859e+00 8.512860999999999123e+00 8.836061000000000831e+00 1.672720999999999902e+00 1.309760999999999953e+00 2.645560999999999829e+00 8.608860999999999208e+00 5.189281000000000255e+00 1.112246099999999949e+01 1.879221000000000030e+00 3.480351000000000194e+00 5.916540999999999606e+00 2.697451000000000043e+00 6.497780999999999807e+00 8.545961000000000141e+00 9.730660999999999561e+00 4.656931000000000154e+00 5.593620999999999732e+00 8.653760999999999370e+00 3.688991000000000131e+00 1.395691000000000015e+00 1.449661000000000088e+00 1.633431000000000077e+00 5.742850999999999928e+00 9.954461000000000226e+00 8.774860999999999578e+00 1.011746100000000048e+01 3.373841000000000090e+00 1.345320999999999989e+00 9.316960999999999160e+00 1.127540999999999904e+00 3.467061000000000170e+00 8.144460999999999729e+00 7.149910000000000432e-01 1.064206099999999999e+01 2.773671000000000220e+00 1.260521000000000003e+00 9.297060999999999353e+00 1.479961000000000082e+00 2.872060999999999975e+00 1.078996099999999991e+01 5.057221000000000188e+00 6.989841000000000193e+00 1.467160999999999937e+00 6.134761000000000131e+00 5.780401000000000344e+00 8.004260999999999626e+00 1.099176100000000034e+01 5.935671000000000141e+00 2.382770999999999972e+00 1.855890999999999957e+00 6.777300999999999576e+00 3.463511000000000006e+00 1.352181000000000077e+00 5.054020999999999653e+00 4.974491000000000440e+00 2.997110999999999859e+00 1.809960999999999931e+00 1.141331000000000095e+00 6.032261000000000095e+00 7.995961000000000318e+00 3.251800999999999942e+00 3.996920999999999946e+00 1.301341000000000081e+00 3.464601000000000042e+00 2.175790999999999809e+00 8.722960999999999743e+00 5.334181000000000061e+00 9.273260999999999754e+00 7.463210000000000122e-01 4.203700999999999688e+00 9.081260999999999584e+00 2.775320999999999927e+00 1.615980999999999890e+00 3.611909999999999843e-01 1.121040999999999954e+00 1.345191000000000026e+00 7.870961000000000318e+00 1.097756099999999968e+01 3.951509999999999745e-01 4.761060999999999765e+00 3.789710000000000023e-01 1.037636099999999928e+01 2.482080999999999982e+00 4.609930999999999557e+00 7.719860999999999862e+00 4.264320999999999806e+00 1.036926099999999984e+01 2.525881000000000043e+00 8.176861000000000601e+00 4.189311000000000007e+00 5.494321000000000232e+00 5.123261000000000287e+00 5.501971000000000167e+00 9.001260999999999513e+00 3.589500999999999831e+00 2.947871000000000130e+00 2.968900999999999790e+00 3.013580999999999843e+00 3.319941000000000031e+00 1.023926100000000083e+01 6.836710000000000287e-01 1.179041000000000006e+00 2.932011000000000145e+00 9.546810000000000018e-01 1.045886100000000063e+01 3.746840999999999866e+00 4.824070999999999998e+00 1.052136100000000063e+01 9.424360999999999322e+00 5.296331000000000344e+00 4.426200999999999830e+00 1.466040999999999928e+00 8.003460999999999714e+00 8.945961000000000496e+00 8.840909999999999602e-01 1.403880999999999935e+00 1.026836100000000052e+01 1.323851000000000111e+00 1.017736099999999944e+01 6.654480999999999646e+00 5.189780999999999977e+00 4.003281000000000311e+00 7.134300999999999782e+00 1.087016099999999952e+01 3.094141000000000030e+00 1.014216099999999976e+01 6.280310000000000059e-01 8.293561000000000405e+00 5.240031000000000105e+00 7.205401000000000167e+00 3.122491000000000128e+00 8.429660999999999405e+00 5.042581000000000202e+00 3.441520999999999830e+00 9.040661000000000058e+00 3.417009999999999770e-01 6.448271000000000086e+00 3.869610999999999912e+00 1.052236100000000008e+01 6.842940999999999718e+00 5.895991000000000426e+00