-7.766326697694523318e+04
-7.774194470267543511e+04
-7.765965582729637390e+04
-7.775448513539832493e+04
-7.775194689119915711e+04
-7.775226528932582005e+04
-7.737450497775863914e+04
-7.738027832819965261e+04
-7.775403392684945720e+04
-7.775087835315545090e+04
-7.774940653945680242e+04
-7.737750044391752454e+04
-7.775369408263487276e+04
-7.773768152678621118e+04
-7.766391099052251957e+04
-7.737999025436252123e+04
-7.774167503847331682e+04
-7.775333116728998721e+04
-7.775400490729832381e+04
-7.766228061037704174e+04
-7.773890020545682637e+04
-7.774239949030919524e+04
-7.774042869167967001e+04
-7.736503548231521563e+04
-7.766447429656168970e+04
-7.766165706332030823e+04
-7.774281084511939844e+04
-7.737349914391452330e+04
-7.766466035056282999e+04
-7.737260686415772943e+04
-7.775128284286317648e+04
-7.766249017302025459e+04
-7.737531415544054471e+04
-7.766165842391474871e+04
-7.773890708668630396e+04
-7.773914642500746413e+04
