1.173669609375857847e+00 7.900347607480533441e-01 -2.924125637234095798e+00 9.039351544287901330e-01 2.585838367251638736e+00 1.766438520650555066e+00 1.792665831946180122e+00 1.107325372138576958e+00 7.185493452044893203e-01 -9.327505383804988170e-01 -1.829453693239418310e+00 -9.936538066581097617e-01 3.153097819292680182e+00 3.200668888135704271e-01 1.414237981871028449e+00 3.830733196509630289e-01 9.393150795145267518e-01 -2.021530027663064055e-01 -2.600758480129894967e-01 -1.012125127516280837e-01 7.228585144590053968e-01 2.299870479822969660e+00 1.089358501762348608e+00 -1.383082379628472136e+00 -1.181493476942380827e+00 5.786134445398140036e-01 1.450446830684483379e-01 -1.472748581348965802e+00 7.477041148015417527e-01 -1.217596910517509290e+00 -2.784376398674359709e-01 2.141759449408787042e+00 2.764769164345636798e-01 -4.729128137388521336e-01 -5.887425633913005996e-01 8.253961738894984024e-02 1.707992198756962843e+00 1.904723258728565627e+00 -2.058173392946693880e-01 -1.257722063989961114e+00 1.487863583862957251e+00 1.420432284119226507e+00 1.244632062493187696e+00 -9.764551819699778257e-01 -1.102948839975666839e+00 1.559965549995562251e+00 3.822803913704781453e-01 -2.702471329598067351e-01 2.459112795721631439e+00 -2.136404355301802394e+00 3.621112681104412534e+00 5.527933960186012241e-01 1.798568571071787581e+00 -2.068110707486494171e+00 9.619418176454597180e-01 1.637551165403842990e-01 -4.619542569389722964e-01 1.724345958876458695e+00 2.709690987871743451e-01 -1.231380595704538505e+00 1.609367244440743416e+00 -1.163512208387259328e+00 8.976390364869888394e-01 1.912016450558732539e-01 -2.512661679908778645e+00 8.157442518241921903e-01 -1.822123991741343207e+00 1.224965692786866844e+00 -9.671308184744956127e-02 -5.297727648507994935e-01 -2.531596313594911329e+00 -1.398000949844703689e+00 1.715770300683431948e+00 1.745670176038216281e+00 2.884895227735732259e+00 1.080994188266649392e+00 1.759295995478093122e+00 1.613375080379848114e+00 5.437729369419039838e-01 -1.711216876608403270e+00 3.674281556212909416e-01 -6.730881237900191438e-01 4.407210568366478065e-01 -6.732223353861322979e-01 9.682615897383000103e-01 -6.743680190495048299e-01 -1.122956652210030493e+00 5.621357572377000400e-01 1.027672589617748100e+00 -1.185410810042727636e+00 3.587080014186555532e-01 -4.796038531588716070e-01 -6.374264057745121503e-01 -1.195381548926387261e+00 9.329140605550735321e-01 -2.027374659852423378e+00 -8.936692528778164557e-02 3.147550920874008895e+00 6.244366773093175116e-01 1.882831341941869185e+00 1.459805646965174564e+00 -3.149215967418892426e-01 -4.239281522609040787e-01 3.197706977049067922e-01 8.285216071507095492e-01 7.244819091292330482e-01 -1.079699380607595627e+00 2.664640114555734685e-01 1.741444310533012130e-01 1.699242219755190894e-02 -2.308969100442230526e-01 9.398308428513141299e-01 -5.774996425582767934e-01 1.384174070120994582e+00 -2.261933335321635763e+00 2.257327460737780900e+00 -5.212937801446281272e-01 -1.179943101607969780e+00 8.607334186592295877e-01 -1.572396320587289287e+00 -1.067617251633357967e+00 -7.941927491241890236e-01 1.679420041184416901e+00 1.298053934173667878e+00 -1.117452948328039181e-01 -5.921708726299473868e-01 1.578732547741722225e+00 1.319666114913292887e+00 -1.305199544670178291e+00 1.382458115729309434e+00 2.065759176340801417e+00 1.282169657530231044e+00 -2.181889745087986499e-01 1.017056503787260591e-01 -1.203094344827161155e+00 2.895448064423223888e-01 -1.195233453372055221e+00 -2.117431669285736895e+00 5.290533701268057554e-01 -6.802985260915495047e-01 -8.799884118257399468e-01 -9.736645063680375856e-01 1.644514741781486711e+00 -2.159359166223234094e+00 -1.104896193670995341e+00 1.483131725213785668e+00 -1.407572139264072320e+00 1.805398450073993244e+00 -3.886218635757936024e+00 5.951641511777442523e-02 -1.251762246369454989e-01 9.844909084545032663e-01 -1.989313073947796662e+00 -1.131838785925216362e+00 9.819136344325899435e-01 -1.296833174291780022e+00 2.132935936850524281e-02 2.558019028746946422e+00 1.003555639971351221e+00 5.712734586282432192e-02 -1.782340795017608670e+00 3.429738772122493118e-01 -2.951721289745266485e+00 1.294890448582524334e+00 1.110735683653606864e+00 -1.134981188468694668e+00 1.044027378178593451e-01 1.683766234327516154e+00 7.184038207535312637e-01 4.789276529715579822e-01 1.178264685325542405e-01 1.659292415532833465e+00 -7.851841171230115879e-02 1.580718467987657805e+00 -2.171723088127242463e+00 3.895545570356791498e-01 1.350681849132313816e+00 2.109396971242561314e+00 9.001582035726539699e-01 -1.820505739277862856e-01 -4.176716293110595002e-01 4.187838886305723651e-01 2.464263230000060645e+00 -7.260178862847509462e-01 -6.006220894196814264e-01 -6.128482001828526593e-02 1.115900001890254289e+00 -1.151108177270619759e+00 1.563481790969593499e+00 1.618684408846778888e-01 1.458524209043664754e+00 2.611978261032554371e+00 -2.978427854709770894e-01 5.133207885824238315e-02 1.994142120304497778e+00 3.426715154554885179e-02 -1.918148532105284909e+00 3.051146371431417315e+00 7.569883690843924873e-01 -4.020162837120269117e+00 1.400676440015496960e+00 1.861903588920353902e+00 -2.078912941201245701e+00 5.589856413841002292e-01 -8.901206160012751223e-01 -2.006747211704970280e+00 2.025839196917580409e-01 1.770470010740698985e+00 1.097049186174107849e+00 4.023756211195516075e-01 -1.830362835392399745e+00 -1.233863253122295500e+00 3.086107206667222158e+00 7.218439570676975503e-01 8.301912816816657825e-01 1.098778510303336731e+00 2.104314414093201024e-01 2.680496623282734081e+00 1.278211186775903396e+00 -1.010510474597524078e-01 1.369513638683493850e-01 -2.219728673440441113e+00 3.924691598202373344e-01 7.222203666016242529e-01 -4.463312043983149735e-01 -1.065557797830931186e+00 -1.826223873181230584e+00 1.314567616923015159e+00 1.217774830870977265e+00 1.432625484759213030e+00 -1.322816744987567406e+00 -1.725912789272462389e+00 1.135548373872958372e+00 6.170545253024162236e-01 2.699252308174049375e-01 -5.389706300602900013e-01 1.676925042470465699e-01 -3.869813967791638776e-01 2.884937393831062957e-01 -7.452512821829211376e-01 -3.926589072492250310e-01 4.099007264740371359e-01 1.941980089277187960e-01 1.237302360995112149e+00 -4.376136727211208388e+00 -1.121393421358750198e+00 -8.196137624017856282e-01 1.749471295266066262e-01 -1.475756772296330954e+00 2.741690940462261361e-01 5.298375566558197747e-01 1.073362125011813273e+00 1.055345375230132721e+00 -1.254398141548291656e+00 3.483587961183701731e-01 -2.193970845620874410e+00 1.958912347655792363e+00 6.219447639194147781e-01 -6.076453153955980735e-01 8.866357424884044880e-01 3.833566552427575824e-01 6.255268251398156121e-01 -2.010985418506368472e+00 7.897082306195786217e-01 -4.735741015265977349e-01 -2.641794832638027390e+00 8.037269146549745960e-03 2.169822528513317028e+00 -4.549402869352013878e-01 2.140449729350164976e+00 -8.076082523080877484e-01 -6.964707663128539838e-01 9.924782981956010719e-01 1.590147732500791999e+00 8.395974062644353531e-01 -8.021117475155432608e-01 -1.480590446639105551e+00 6.647963154094616023e-01 6.873855154311367954e-01 -3.349301803072650241e+00 -1.191227160094974646e+00 -5.149956053201277806e-01 4.766208590245700483e-02 7.879814775937236948e-02 2.873087178381143580e+00 -1.748741101907902717e-01 -6.006087196821375818e-01 9.457567219072858800e-01 1.172633968936884763e-01 9.512681390993985575e-01 -1.392514215244979647e+00 2.344265207557980901e-01 1.896615027128898401e+00 -2.604856818907757887e+00 -8.278351225499006594e-01 -3.407329035116311161e-02 -9.586513195476493998e-02 -2.670239977703906531e-01 -1.422770959748050013e+00 9.860541393057835335e-02 -1.720746928373790618e+00 -2.598654289128763395e+00 3.128940246212976728e-01 -1.499627410239516179e+00 -8.998553275952184127e-02 -1.816679423236949642e+00 -8.477945980408363447e-01 -1.514966098747029477e+00 7.164261280383917851e-01 -1.489875215142630882e+00 2.176806159497276738e+00 1.577000138288444875e+00 8.982535301933309846e-01 -9.055266674171824626e-01 1.919048932506794980e+00 -1.150808386617232726e+00 -5.108396738266911541e-01 -2.427826067207010663e+00 2.904091085524644456e+00 -1.377031544948532915e-01 -2.499383987865716250e+00 1.019809127059268183e+00 5.080191734256146729e-02 7.768208320686619262e-01 -1.055565975899606324e+00 -3.446389237571327868e-01 -8.591593891737792088e-01 3.291125447033309004e-01 -1.086714893273390770e+00 1.704865222833727545e+00 -8.984875006003482101e-01 -9.013810203372409902e-01 -4.046479622813303756e-01 3.759343940232247605e-01 1.404115547888313609e+00 2.712140220945641111e+00 -6.379966765028246556e-01 5.832758833978923807e-01 -4.307266638019490584e-02 -2.390344522223516732e-01 6.165397904069781498e-01 1.364006335256779112e-01 7.457793868159029449e-02 1.993489574268223485e-01 -6.483628510853772786e-01 1.500032101910554916e+00 1.715410346211097448e+00 -5.938446609263017262e-01 7.606336794477892571e-01 3.004968326396327161e+00 1.319090701978232971e+00 1.295695718159203702e+00 9.175414334830259699e-01 -2.840565291805741133e-01 7.965005715125266228e-01 -2.526812004436914005e+00 -1.666001452676469929e+00 -2.006318351662216948e+00 1.452756709955519865e+00 1.749337597890627816e-01 2.710883979837194757e-01 -3.532608618108883936e-01 3.324128129939615262e-01 1.016120622159191411e+00 1.628183093151005956e+00 -6.606028458067670917e-01 8.140061859434922775e-01 -1.345062445598501077e-01 8.886838834359865880e-01 -1.390002761469435910e+00 -8.155087387551505085e-01 1.742318485680109386e-01 -3.562968206746905953e-01 1.164678975098297070e-01 -1.570183114803108237e+00 3.515788459837376756e-01 2.807336351802539043e-02 -1.319932481222820364e+00 4.292925023400343543e-01 3.937048321016934915e-01 7.819198442796142512e-01 -1.025416703517561645e+00 -1.069675676994435332e+00 8.101901543160739960e-01 1.630038401345551835e-01 6.115842457642847174e-01 8.298518960363220343e-01 -9.454178504826170615e-01 2.023374537223439962e+00 -1.233652936866317162e+00 -7.232596065853207357e-01 3.738771513696994120e+00 -1.094695598145716486e+00 -1.867137326948094644e+00 6.091406691178095911e-02 2.485544766845813047e+00 -6.061684736176779081e-02 2.088274842805985632e+00 6.057822938909308563e-01 8.377786077377976648e-01 3.245514073181808290e-01 -4.180624370238795739e-01 -6.887096336686521214e-01 1.501149503436815413e+00 -4.269990781305901817e-01 -4.381417259320353197e-01 2.306659735391868971e+00 -6.359907016505731425e-01 -5.005609167588482844e-01 1.119064001702072542e+00 5.631924807243385844e-01 2.593420551101023250e-02 3.269667018275437820e-01 -2.945579438005894168e-01 -1.153677737982411911e+00 -8.736449855818602117e-01 -1.878036234149701666e+00 -8.511462883989434625e-01 5.513484359225163667e-01 1.146249820335456526e+00 1.255747456598870215e-01 -2.455494739053997399e+00 1.186196539233765668e+00 1.114959492276112130e+00 -1.092682938424692995e+00 7.462411569818403478e-01 9.689362472635896228e-01 1.723007442460050109e+00 -1.829445465708622320e+00 -1.258071734048800128e-01 -1.119993198461369799e-01 7.890088905019005949e-01 -1.735590936592181777e+00 -1.017476622078542059e+00 -8.568932186600974887e-01 -1.673346066574113444e-01 -1.305390320540515403e-01 -6.339970680945160586e-01 -6.459717249477280321e-01 -1.622821828395924149e+00 -5.903150502147267581e-02 -5.020367300954188261e-01 -1.578806081298213204e+00 1.135183791414551280e+00 1.931495129718764914e-01 -2.495852320271442437e+00 -3.888804137310645226e-01 9.124465350374716399e-01 1.066362553186935624e+00 2.804892260935389459e+00 4.263038517783103165e-01 1.517002412619091953e-02 -2.467292503995091035e-01 -9.089621757452756579e-02 5.764655447813278322e-01 -1.649628152171332962e+00 -8.496565911041542574e-01 1.855531366318687647e+00 -2.398821450046988879e+00 4.834687357503923977e-01 -7.224543370086414784e-01 1.821575318281370426e-01 9.309492233568033015e-01 4.886577365794284034e-01 -1.066035508837786194e+00 -1.408111556751898918e+00 -4.594829123760600931e-01 -4.588313947811349935e-01 1.026266196072270320e+00 5.005614309795229921e-01 1.621424690822592218e+00 2.179133522271255730e-01 -4.680297742113002646e-01 -1.543690465639305058e-02 -1.024967788868493379e+00 -8.997164880130323894e-01 2.306354288311059708e+00 -6.966589710798173352e-01 -6.176479359610930198e-01 -6.892511080391777734e-02 -2.351442699736326691e+00 -1.681038807868572016e-02 -3.736322280623096126e-01 1.055790176113803103e+00 -1.551216085214465412e+00 1.236384477090659795e+00 -1.250687010938525079e+00 -2.517495868472228171e+00 -1.639196157342410753e+00 1.343348548089514871e+00 -6.582806252395362323e-01 -1.399535384338197241e+00 9.311507978613103864e-02 3.207749706827194291e-01 -1.622804859113657017e+00 -2.910489533380723692e+00 3.564114918851628011e-01 -1.400890870036873181e+00 5.892382721217723773e-01 -1.250749231640171377e-01 -5.016968302294002591e-01 1.238673787534705806e+00 -1.778775188858800149e+00 2.609927548981598733e+00 -2.218383986375934980e-01 -1.508106394945687712e-01 -1.872542300460531051e+00 -7.770383474140866165e-01 -1.735351309757741989e+00 -7.365594101173976727e-01 2.172075329289455237e+00 -3.744302985495421843e-01 1.444137343005138241e-01 1.001217478563202645e+00 1.454773997662616170e+00 6.194651918257063627e-01 1.288693061010277807e+00 1.318930779348381765e+00 9.208653559246957609e-01 1.838022666563673413e+00 -9.599312148071351691e-01 1.017938392244479573e+00 3.649740888730506949e+00 -3.295337942800969255e+00 -1.952852257003707459e+00 1.228817719861518443e+00 -3.622293845994343231e-01 1.858294788224865490e+00 -1.392202083295398518e+00 -1.775090283503446553e+00 -1.706391429796424886e+00 2.207611063239644789e-01 -2.467397919233417447e+00 -1.413590063820826526e+00 1.148023367442715159e+00 1.599538944683993380e+00 1.492120302608647364e+00 4.163156293917087969e-01 -1.046850449683043749e+00 -6.869839090841466378e-01 2.909727972561399478e-01 -3.043337930485137122e-01 6.859441548797753363e-01 1.401539302307749590e+00 4.067742647714764903e-01 -1.280542663315279883e+00 -7.256939272596499291e-02 -2.844093359855291769e+00 -4.241873194809847036e-01 1.284666713126881410e+00 -6.783866536227797228e-01 -7.704234126539322158e-01 -1.399138920197954938e+00 1.272971792320740647e+00 4.607083002440209296e-01 1.000034771011247159e+00 2.639307033013522652e+00 6.988007001902063475e-01 -1.191633908648712437e+00 -5.265722553710730502e-02 6.612713326839593231e-01 -9.485026603105218834e-01 6.619886705252541192e-01 -4.998908872196318187e-01 1.927681669194720726e+00 1.102591970827381251e-01 2.557060007188513007e-01 -1.499930286216951902e+00 -2.719312056696564506e-01 4.239708325769093733e-01 2.544435889623075098e-01 -4.556298568600589682e-01 3.868209599286376865e-01 -1.437622167055887523e-01 2.286806189359934294e+00 1.396189350407512686e+00 3.649269862592424002e-02 2.583316114841924804e-01 2.122021088807999778e+00 -1.858677882627564060e+00 -2.221415317253664590e+00 -7.573483235567266547e-01 -3.413962481820756456e-02 2.403326537378590366e+00 6.010149540152005532e-01 -1.261553522237622404e+00 1.812992975219571923e+00 2.817929297702662095e-01 -8.318943805564817939e-01 -9.511817500260383307e-01 3.098179565448638817e-03 -4.048716482748523915e-01 -4.082140312387461556e+00 1.331007251895196752e+00 2.247072357820977251e-01 -2.704474219126270729e+00 -2.757138129532149540e-01 -1.063695804767613495e+00 2.301624486544587622e+00 -1.341901016890056253e+00 -1.800022272919343358e+00 -3.905549733584311234e+00 -2.576486750060394293e+00 -1.515556424081657694e+00 2.168676330629269788e+00 -1.627568599444663811e+00 -6.568552055290924896e-01 1.900919568397341566e-02 -1.135021297681326091e+00 -2.356411099895888983e-01 -1.606454698538884118e+00 -9.016545857362150418e-01 1.041092206567044709e+00 1.121916383784984372e-01 9.374088634731793102e-01 -8.286671316016674949e-01 -2.176799474628505315e+00 -1.137751809464318864e+00 -1.808610786629239575e+00 -1.659174144777638138e-01 2.447561856704424388e-01 6.383571451958336418e-01 2.004623994538872633e+00 2.468223243416412527e-01 -1.254791006143810783e+00 1.058569538860898440e-01 -1.025265008418506429e+00 1.385102238438942202e+00 1.709727179313613954e+00 -1.236118110781132540e+00 -1.444316806020630395e+00 9.682775305792176712e-02 -2.324426573925614525e-01 6.111085916401286511e-01 4.726865566419563569e-01 -2.292321206096770592e+00 -1.746092865432872010e+00 -2.616227266468123425e+00 -1.158683676251232253e+00 -1.499587301026884534e+00 1.098422155375725850e+00 4.454030360803672428e-01 -1.178723884388105825e+00 -1.495283273979116201e+00 -7.073367633912763797e-01 2.883029635127690726e-01 8.930069366487214388e-01 1.062818544296467493e+00 3.382605305073692614e-01 4.990439657682966268e-01 9.554580091573697254e-02 -2.117453780774751770e+00 1.284873944058810835e+00 -1.002958629767951138e+00 4.219016085816620354e-01 1.487510828480069325e+00 -5.239569290192270801e-01 5.468850004655714248e-01 2.386328972974290252e+00 -1.272300220119499670e-01 7.808523221588058449e-01 -1.001299753871164766e+00 -4.427769110943512998e-01 1.323123220509726528e+00 3.610749591845908157e-01 1.279956451746049773e+00 7.059956758714939218e-01 1.464296336117882014e+00 1.005377523822037267e+00 -1.414798996627195216e+00 -1.404034301021701125e+00 -1.047092133400182368e+00 1.944602614718480560e-01 -6.601549595990483521e-01 -3.290493469824024686e+00 3.291852555067424468e+00 2.806217921834929019e+00 4.676729050630145101e-01 -8.011306144680949703e-01 -8.195854802646734827e-01 2.099507479225514395e+00 1.447700892281247542e+00 -3.207667431519232171e-01 4.018444311625210541e-01 -1.057309698207728604e-01 -1.188624175039322939e+00 -3.082398132940154523e-01 1.282684906646343714e+00 1.774822374531894953e+00 -1.779489441376046477e+00 7.876780873956133744e-02 -1.564660384756151046e-01 4.019200216017113081e-02 -1.456427217131979999e-02 5.014268643751496057e-01 2.077924609064350780e-01 1.514282699470269167e+00 -5.944010476963954570e-01 9.331819695266253545e-01 -6.938436128854885698e-01 -2.079341287023323659e+00 -4.972261956830085206e-01 4.451212431505969791e-01 1.295674120890863756e+00 4.837212181017011003e-01 5.270196273581170820e-02 1.563431397343466589e-01 -1.469313587241547481e-01 5.618179688606964595e-01 4.584123049312029824e-02 3.079400226406284191e-01 1.537259107660041035e+00 2.626445859717018827e+00 -1.778155038725035553e+00 -2.151463307762244426e-01 -5.343467577528187018e-01 -1.373637688495095377e+00 -1.209852747155574670e+00 -2.229151767305477816e-01 -1.888948511088852922e-01 -9.159632902321774850e-01 -1.680600691853673556e+00 1.489053490504359312e+00 5.092995829057751500e-01 -1.269200497892026602e+00 -8.766670604874441386e-01 3.034560183566928360e-01 -1.543855016255229473e-01 2.695293323199047020e+00 6.729811658896683868e-01 -5.742919339891034980e-01 -6.067330879185680592e-01 -1.422646518344757194e+00 -1.835914361797144290e+00 -7.010421881114994314e-01 -1.221749242466222851e+00 -1.187030090947556848e+00 8.912215624659432234e-02 -1.498499210079085708e+00 1.383683503597270326e+00 2.946962691621007324e-01 1.138335449930175242e-01 -1.817835391313817217e+00 -6.963560951023818335e-01 3.753450971299460842e-02 6.966923954236768912e-01 5.429866935301911335e-01 -5.525810228799239443e-01 1.904889352006513825e-01 4.859231110310373303e-02 -3.066751426248457868e+00 1.927002383683358300e+00 -1.530814379943233050e-01 1.620439958230420530e+00 -1.841491085014951568e-01 1.786624253238386473e+00 -3.047862558202379279e+00 -1.600682057243991929e+00 -9.819234046254103898e-01 -3.817517725168214637e-01 -6.081430810087689043e-01 5.238787674766630653e-01 2.864394277874270367e-01 -2.883705835315004684e+00 -1.323627670991669225e+00 -1.223273392546220695e+00 2.269903755780466048e-01 -2.275107154788395647e+00 -2.940560644220204245e-01 -1.640980503083839137e+00 7.215359388835143051e-01 1.592028237508401167e+00 1.401032280722433132e+00 -1.927045578220038191e+00 -1.769161319123426335e+00 8.373883142456525208e-01 -3.479237654275204594e-01 -9.074688789057632210e-01 7.483515186310687461e-01 1.290033634309385446e+00 2.853149300158547508e+00 1.367338999449920101e+00 2.360745980184143500e-01 -1.300551503990993174e+00 -8.469137380249670555e-01 1.590141047632019911e+00 1.400247065752069586e+00 1.319072704254615980e+00 7.126718028919452053e-01 5.960131295117784278e-01 -8.721079799849928982e-02 3.048531559300245997e-01 -1.171759793789787230e-01 -1.065508946866828399e+00 -2.262349854068193833e-01