1.331811199999999928e+01 6.574632000000000254e+00 1.043891200000000019e+01 6.212151999999999674e+00 1.479051199999999966e+01 4.886542000000000385e+00 8.368282000000000664e+00 8.121131999999999351e+00 7.885851999999999862e+00 2.788762000000000185e+00 5.431561999999999557e+00 3.818671999999999844e+00 1.135741200000000006e+01 5.153631999999999991e+00 6.186662000000000106e+00 4.151932000000000400e+00 3.428490000000000149e-01 1.521061199999999936e+01 1.358331199999999939e+01 5.253362000000000087e+00 4.955262000000000278e+00 6.913132000000000055e+00 6.560801999999999801e+00 4.466082000000000107e+00 7.357371999999999801e+00 1.254461200000000076e+01 1.505751999999999979e+00 1.497471200000000024e+01 1.475671200000000027e+01 1.251881200000000049e+01 1.513771200000000050e+01 1.406322000000000072e+00 1.068501200000000040e+01 5.571422000000000097e+00 5.580662000000000234e+00 5.933142000000000138e+00 1.429551200000000044e+01 1.505152000000000045e+00 3.556081999999999965e+00 2.283582000000000001e+00 1.665342000000000100e+00 1.815782000000000007e+00 5.363701999999999970e+00 9.911911999999999168e+00 1.172451200000000071e+01 4.553761999999999865e+00 1.288671199999999928e+01 8.370872000000000313e+00 4.082632000000000261e+00 7.725241999999999720e+00 1.202731200000000022e+01 1.837401999999999980e+00 1.299481199999999959e+01 3.209589999999999943e-01 1.481571199999999955e+01 8.908302000000000831e+00 8.766621999999999915e+00 9.447952000000000794e+00 1.196751199999999926e+01 8.377751999999999200e+00 3.474702000000000179e+00 9.971712000000000131e+00 8.975552000000000419e+00 9.923211999999999477e+00 3.046921999999999908e+00 5.739481999999999751e+00 1.510251200000000082e+01 1.113181200000000004e+01 1.227531199999999956e+01 2.329401999999999973e+00 1.923462000000000005e+00 1.333721199999999918e+01 6.043351999999999613e+00 5.149081999999999937e+00 1.186582000000000026e+00 1.470011200000000073e+01 3.257611999999999952e+00 4.156781999999999755e+00 1.228261999999999965e+00 8.357241999999999393e+00 1.444611199999999940e+01 1.297301200000000065e+01 1.355701999999999963e+00 2.243672000000000111e+00 8.936811999999999756e+00 3.971341999999999928e+00 1.501711199999999913e+01 9.451102000000000558e+00 6.470632000000000161e+00 3.144640000000000213e-01 8.656420000000000226e-01 8.782712000000000074e+00 1.225501200000000068e+01 1.411581200000000003e+01 7.645112000000000130e+00 1.935330000000000106e-01 1.083991199999999999e+01 1.097021200000000007e+01 1.014381200000000049e+01 1.109771199999999958e+01 2.833060000000000023e-01 5.748320000000000096e-01 5.768591999999999942e+00 1.337691200000000080e+01 1.526491200000000070e+01 6.107489999999999863e-01 3.583682000000000034e+00 1.080511199999999938e+01 1.366571199999999919e+01 1.158211200000000041e+01 4.924482000000000248e+00 1.069621199999999916e+01 5.962960000000000482e-01 4.192242000000000246e+00 6.859352000000000338e+00 1.339032000000000000e+00 2.872452000000000005e+00 1.380431199999999947e+01 4.385722000000000342e+00 9.236651999999999418e+00 9.846512000000000597e+00 1.103861200000000053e+01 1.582171999999999912e+00 1.520852000000000093e+00 1.557401999999999953e+00 9.020471999999999824e+00 2.752301999999999804e+00 1.317391199999999962e+01 7.064411999999999914e+00 1.553042000000000034e+00 6.543940000000000312e-01 6.888372000000000384e+00 2.796999999999999834e-02 7.186852000000000018e+00 1.047251200000000004e+01 3.538161999999999807e+00 7.518112000000000350e+00 9.347042000000000073e+00 8.233120000000000438e-01 1.071521199999999929e+01 4.426192000000000348e+00 5.216202000000000005e+00 9.733912000000000120e+00 1.527941200000000066e+01 4.423091999999999580e+00 8.565019999999999856e-01 1.278121200000000002e+01 1.371011200000000052e+01 7.279320000000000235e-01 8.647892000000000579e+00 1.296641200000000005e+01 7.733171999999999713e+00 2.294242000000000115e+00 1.039282000000000039e+00 1.487191200000000002e+01 1.397451200000000071e+01 1.006471200000000010e+01 1.532781199999999977e+01 1.125341200000000086e+01 1.255161200000000044e+01 9.653931999999999292e+00 1.241511200000000059e+01 1.299841200000000008e+01 9.150952000000000197e+00 1.021311200000000063e+01 6.048111999999999711e+00 6.421931999999999974e+00 9.739411999999999736e+00 1.336051199999999994e+01 1.305891199999999941e+01 1.273621200000000009e+01 6.511251999999999818e+00 8.446372000000000213e+00 9.786811999999999401e+00 7.193819999999999659e-01 1.241031199999999934e+01 1.032381200000000021e+01 4.424311999999999578e+00 4.119162000000000212e+00 1.174791199999999947e+01 1.842411999999999939e+00 1.411401200000000067e+01 2.953052000000000010e+00 1.158671200000000034e+01 7.381231999999999793e+00 2.054900000000000060e-01 8.222841999999999985e+00 2.429381999999999930e+00 1.314881199999999950e+01 6.543152000000000079e+00 1.333992000000000067e+00 1.166101199999999949e+01 8.313591999999999871e+00 8.461432000000000286e+00 5.379762000000000377e+00 9.202742000000000644e+00 9.767212000000000671e+00 3.278471999999999831e+00 5.743631999999999849e+00 1.128301199999999938e+01 1.363131199999999943e+01 4.599692000000000114e+00 4.396092000000000333e+00 1.494051200000000001e+01 1.510191200000000045e+01 9.317821999999999605e+00 6.157771999999999579e+00 3.130421999999999816e+00 2.789261999999999908e+00 1.057831200000000038e+01 9.800212000000000145e+00 5.877302000000000248e+00 7.673811999999999856e+00 5.788541999999999632e+00 1.569561999999999902e+00 6.237242000000000175e+00 8.975051999999999808e+00 1.538181999999999938e+00 1.505351199999999956e+01 1.265291200000000060e+01 2.426651999999999809e+00 9.105081999999999454e+00 9.375171999999999173e+00 1.299562000000000106e+00 3.306951999999999892e+00 1.486021200000000064e+01 1.359221199999999996e+01 8.804221999999999326e+00 2.246561999999999948e+00 5.810162000000000049e+00 1.533871199999999924e+01 1.309591200000000022e+01 8.395291999999999533e+00 4.813612000000000002e+00 3.701411999999999924e+00 7.626211999999999769e+00 3.141912000000000038e+00 1.880092000000000096e+00 3.374191999999999858e+00 2.939970000000000083e-01 1.218171199999999921e+01 1.138201199999999957e+01 1.398791199999999968e+01 7.648819999999999508e-01 5.201501999999999626e+00 5.297471999999999959e+00 3.365511999999999837e+00 2.194011999999999851e+00 6.147631999999999763e+00 7.854592000000000240e+00 6.285861999999999838e+00 2.095401999999999987e+00 7.468842000000000425e+00 3.672352000000000061e+00 5.541981999999999964e+00 1.076661200000000029e+01 6.886419999999999764e-01 6.189081999999999972e+00 1.136261200000000038e+01 1.049601200000000034e+01 4.433212000000000153e+00 1.246121999999999952e+00 1.460771199999999936e+01 5.515241999999999756e+00 3.052042000000000144e+00 1.212441199999999952e+01 1.053341200000000022e+01 5.152511999999999759e+00 3.082451999999999970e+00 1.524391999999999969e+00 7.099012000000000100e+00 1.249991200000000013e+01 5.343122000000000149e+00 2.024151999999999951e+00 3.207932000000000006e+00 4.311571999999999960e+00 1.100631199999999943e+01 1.376231199999999966e+01 7.429572000000000287e+00 1.327451199999999965e+01 1.252041200000000032e+01 7.240482000000000085e+00 4.760612000000000066e+00 9.867312000000000083e+00 3.911831999999999976e+00 6.997601999999999656e+00 1.185681199999999968e+01 7.938621999999999623e+00 1.110031200000000062e+01 1.265371200000000051e+01 4.764660000000000006e-01 2.699221999999999788e+00 9.996012000000000342e+00 3.455512000000000139e+00 1.043121200000000037e+01 1.906841999999999926e+00 1.024941199999999952e+01 6.703312000000000381e+00 1.137211199999999955e+01 3.511461999999999861e+00 2.686501999999999946e+00 1.041871199999999931e+01 1.624450000000000061e-01 4.459751999999999938e+00 5.935702000000000034e+00 8.153491999999999962e+00 1.059021199999999929e+01 5.044971999999999568e+00 1.004171200000000042e+01 3.793822000000000028e+00 7.326071999999999917e+00 1.471231200000000072e+01 8.184091999999999700e+00 1.100441999999999920e+00 9.886912000000000589e+00 1.105231200000000058e+01 1.302501200000000026e+01 1.163321200000000033e+01 2.641782000000000075e+00 4.236261999999999972e+00 3.332091999999999832e+00 1.723041999999999963e+00 1.467421200000000070e+01 4.126462000000000074e+00 1.185531199999999963e+01 9.354991999999999308e+00 4.826092000000000048e+00 1.167141200000000012e+01 4.513630000000000142e-01 5.177602000000000260e+00 9.198601999999999279e+00 1.876781999999999950e+00 9.166052000000000533e+00 9.993612000000000606e+00 2.254281999999999897e+00 4.092821999999999960e+00 1.243881200000000042e+01 1.326641200000000076e+01 1.191471199999999975e+01 1.015051200000000087e+01 1.408731200000000072e+01 1.106091200000000008e+01 6.243922000000000416e+00 1.030891199999999941e+01 1.461351200000000006e+01 4.702939999999999898e-01 1.172750000000000042e-01 6.012351999999999919e+00 8.829731999999999914e+00 1.924700000000000022e-02 1.034971200000000024e+01 3.679361999999999799e+00 5.387462000000000195e+00 6.949900000000000522e-02 1.273801199999999945e+01 8.064552000000000831e+00 1.498671200000000070e+01 1.547072000000000003e+00 4.663012000000000157e+00 3.035939999999999750e-01 3.214411999999999825e+00 6.439222000000000001e+00 8.565492000000000772e+00 4.621001999999999832e+00 8.275791999999999149e+00 1.515721199999999946e+01 2.256682000000000077e+00 7.081121999999999694e+00 1.520161200000000079e+01 1.896182000000000034e+00 1.367541199999999968e+01 1.839671999999999974e+00 1.028671199999999963e+01 4.960302000000000433e+00 8.756842000000000681e+00 1.200012000000000079e+00 1.845831999999999917e+00 7.712691999999999659e+00 7.003612000000000393e+00 1.345031200000000027e+01 4.664739999999999998e-01 1.995702000000000087e+00 9.283811999999999287e+00 2.315260000000000096e-01 7.536482000000000347e+00 7.473772000000000304e+00 5.451582000000000150e+00 4.337801999999999936e+00 2.802502000000000049e+00 4.012290000000000023e-01 1.482691200000000009e+01 1.731942000000000093e+00 4.630341999999999736e+00 1.832241999999999926e+00 1.197141200000000083e+01 1.113511199999999945e+01 1.474131200000000064e+01 5.701562000000000019e+00 5.366302000000000127e+00 1.009801200000000065e+01 1.820691999999999977e+00 6.407572000000000045e+00 1.487441199999999952e+01 4.301911999999999736e+00 1.005241200000000035e+01 3.708552000000000071e+00 6.307261999999999702e+00 3.201671999999999851e+00 1.159151199999999982e+01 2.528351999999999933e+00 1.000181199999999926e+01 1.793431999999999915e+00 5.953832000000000235e+00 4.911952000000000318e+00 8.703241999999999479e+00 3.534161999999999804e+00 1.364761200000000052e+01 1.118532000000000082e+00 8.101912000000000447e+00 1.104921200000000070e+01 9.888111999999999568e+00 1.317451200000000000e+01 8.037841999999999487e+00 9.214719999999999578e-01 1.467321199999999948e+01 1.274581200000000081e+01 3.217391999999999808e+00 7.900620000000000420e-01 1.028272000000000075e+00 1.377501200000000026e+01 1.162601199999999935e+01 1.385631200000000085e+01 2.580661999999999789e+00 8.503132000000000801e+00 2.992602000000000206e+00 5.879211999999999883e+00 4.659002000000000088e+00 1.529551200000000044e+01 1.395321200000000061e+01 8.575981999999999772e+00 5.856851999999999947e+00 3.715711999999999904e+00 1.067971200000000032e+01 4.290411999999999892e+00 1.284051200000000037e+01 7.827592000000000105e+00 1.000951200000000085e+01 1.431911200000000051e+01 6.351782000000000039e+00 1.114881199999999950e+01 7.638819999999999499e-01 1.307641199999999948e+01 9.261761999999999162e+00 1.678361999999999910e+00 1.365971200000000074e+01 6.469552000000000191e+00 1.191521200000000036e+01 9.758611999999999398e+00 1.085271200000000036e+01 1.282631199999999971e+01 2.159692000000000167e+00 3.296462000000000003e+00 9.297152000000000527e+00 9.800812000000000523e+00 1.834951999999999916e+00 1.218081199999999953e+01 1.015992000000000006e+00 9.767019999999999591e-01 2.115981999999999807e+00 3.633322000000000163e+00 1.102651200000000031e+01 5.661582000000000114e+00 2.848749999999999893e-01 5.834451999999999749e+00 2.249341999999999953e+00 1.961101999999999901e+00 3.653502000000000027e+00 3.532151999999999958e+00 1.063191199999999981e+01 1.050691199999999981e+01 1.716901999999999928e+00 1.084941199999999917e+01 3.214942000000000188e+00 5.579011999999999638e+00 8.191720000000000113e-01 1.226331200000000088e+01 6.357841999999999771e+00 1.339401200000000003e+01 4.683442000000000327e+00 1.425111199999999911e+01 1.393591200000000008e+01 1.328371199999999952e+01 5.796611999999999654e+00 1.251701199999999936e+01 8.438772000000000162e+00 8.499371999999999261e+00 1.189241200000000021e+01 1.133761999999999937e+00 8.035892000000000479e+00 1.316521999999999970e+00 1.406631199999999993e+01 3.066892000000000174e+00 8.406420000000000003e-01 6.571381999999999834e+00 5.478191999999999950e+00 5.437041999999999931e+00 8.979761999999999134e+00 8.379962000000000799e+00 9.125042000000000542e+00 3.976201999999999792e+00 6.352922000000000402e+00 9.533841999999999928e+00 1.080911200000000072e+01 1.198531200000000041e+01 1.296501199999999976e+01 7.047471999999999959e+00 1.238411200000000001e+01 5.926301999999999737e+00 5.269542000000000392e+00 1.170811199999999985e+01 1.041531200000000013e+01 1.318661200000000022e+01 3.772882000000000069e+00 1.294181200000000054e+01 9.512522000000000588e+00 1.036321200000000076e+01 5.920282000000000266e+00 6.576001999999999903e+00 7.656801999999999886e+00 8.635301999999999367e+00 9.038062000000000040e+00 1.111761199999999938e+01 1.390021199999999979e+01 1.020142000000000104e+00 8.771971999999999881e+00 3.974202000000000012e+00 5.970661999999999914e+00 1.414011200000000024e+01 6.171879999999999589e-01 2.472862000000000116e+00 1.354401200000000038e+01 8.859341999999999828e+00 1.204241200000000056e+01 7.011832000000000065e+00 2.303202000000000194e+00 5.583111999999999853e+00 1.420791200000000032e+01 1.469331200000000059e+01 8.761262000000000327e+00 5.854872000000000298e+00 1.280751199999999912e+01 1.389351199999999942e+01 8.900501999999999470e+00 8.758812000000000708e+00 6.617201999999999806e+00 1.005721199999999982e+01 5.354472000000000342e+00 1.115211200000000069e+01 1.016911200000000015e+01 1.073251199999999983e+01 8.901642000000000721e+00 5.806021999999999572e+00 1.046461200000000069e+01 3.769141999999999992e+00 1.309451199999999993e+01 3.606472000000000122e+00 8.438921999999999812e+00 1.444731999999999905e+00 2.295462000000000113e+00 1.061501999999999946e+00 4.490132000000000012e+00 4.411392000000000202e+00 1.310791200000000067e+01 8.063299999999999634e-02 2.597071999999999825e+00 1.152561200000000063e+01 5.438971999999999696e+00 7.711152000000000228e+00 9.218272000000000688e+00 4.866062000000000332e+00 8.411372000000000071e+00 3.378661999999999832e+00 5.805092000000000141e+00 1.874762000000000040e+00 2.379081999999999919e+00 1.745282000000000000e+00 7.874320000000000208e-01 1.413041199999999975e+01 5.501731999999999623e+00 4.285341999999999985e+00 2.046142000000000127e+00 1.125451200000000007e+01 1.127461199999999941e+01 1.092532000000000059e+00 9.061821999999999377e+00 2.779412000000000216e+00 3.786120000000000041e-01 1.408611199999999997e+01 7.329062000000000410e+00 1.580662000000000011e+00 1.462771200000000071e+01 3.414179999999999993e-01 1.147071200000000069e+01 4.296902000000000221e+00 9.359720000000000262e-01 1.409661200000000036e+01 8.791242000000000445e+00 6.809402000000000399e+00 8.013802000000000092e+00 8.689541999999999433e+00 5.248332000000000441e+00 1.528501200000000004e+01 3.724461999999999939e+00 6.980711999999999584e+00 1.083721199999999918e+01 1.529761200000000088e+01 8.124691999999999581e+00 1.497891199999999934e+01 6.590311999999999948e+00 1.409311999999999898e+00 1.024691200000000002e+01 1.420561200000000035e+01 9.617701999999999529e+00 9.740211999999999648e+00 4.089611999999999803e+00 1.022631200000000007e+01 7.392419999999999547e-01 1.274831200000000031e+01 5.597112000000000087e+00 9.753512000000000626e+00 6.726041999999999632e+00 6.364802000000000071e+00 1.227511999999999937e+00 9.830311999999999273e+00 5.872380000000000377e-01 3.259679999999999800e-01 1.071611200000000075e+01 1.266761999999999944e+00 1.156911200000000051e+01 1.102501200000000026e+01 3.896812000000000165e+00 6.034752000000000116e+00 1.498701200000000000e+01 1.205621200000000037e+01 1.121041199999999982e+01 1.064191199999999959e+01 1.490071200000000040e+01 7.010112000000000343e+00 6.981122000000000050e+00 1.256351199999999935e+01 6.627781999999999840e+00 4.410441999999999751e+00 3.112162000000000095e+00 1.086991199999999935e+01 1.226282000000000094e+00 9.798211999999999477e+00 5.462271999999999572e+00 1.976191999999999949e+00 2.990801999999999961e+00 1.415711199999999970e+01 2.844542000000000126e+00 2.159391999999999978e+00 9.393382000000000787e+00 1.637381999999999893e+00 8.465401999999999205e+00 1.321241200000000049e+01 3.487080000000000179e-01 1.012891199999999969e+01 1.251451199999999986e+01 1.399941199999999952e+01 1.252791200000000060e+01 8.277962000000000486e+00 5.436472000000000193e+00 6.474211999999999634e+00 4.873362000000000194e+00 1.130641199999999991e+01 1.255331200000000003e+01 1.417761199999999988e+01 3.969802000000000053e+00 1.283531200000000005e+01 7.114042000000000421e+00 6.773302000000000156e+00 2.436909999999999910e-01 3.870102000000000153e+00 6.375619999999999621e-01 3.917431999999999803e+00 4.794501999999999597e+00 4.282291999999999987e+00 9.107421999999999684e+00 1.233901200000000031e+01 1.166721199999999925e+01 7.818541999999999881e+00 1.511671999999999905e+00 8.068920000000000536e-01 8.480220000000000535e-01 9.866911999999999239e+00 3.964252000000000109e+00 1.063881199999999971e+01 7.869451999999999892e+00 2.370861999999999803e+00 3.109252000000000127e+00 5.661961999999999939e+00 4.600722000000000200e+00 1.411191200000000023e+01 4.409379999999999966e-01 2.012842000000000020e+00 1.172231200000000051e+01 1.529321200000000047e+01 7.676802000000000348e+00 6.009082000000000257e+00 3.412561999999999873e+00 8.212452000000000751e+00 1.571612000000000009e+00 2.564761999999999986e+00 6.613742000000000232e+00 4.843411999999999829e+00 5.689592000000000205e+00 1.046431199999999961e+01 1.192811200000000049e+01 1.125641199999999920e+01 1.382981200000000044e+01 1.667672000000000043e+00 9.872011999999999787e+00 7.500511999999999624e+00 2.231822000000000195e+00 1.211651200000000017e+01 7.655592000000000397e+00 1.156321200000000005e+01 4.247632000000000296e+00 3.260622000000000131e+00 1.731562000000000046e+00 1.240391200000000005e+01 1.013891199999999948e+01 2.053049999999999875e-01 3.086692000000000213e+00 1.247621200000000030e+01 1.156631199999999993e+01 4.152911999999999715e+00 1.361021200000000064e+01 4.012062000000000239e+00 4.124821999999999989e+00 9.127852000000000743e+00 6.823751999999999818e+00 1.613612000000000046e+00 1.336231199999999930e+01 8.024471999999999383e+00 3.608521999999999785e+00 1.026111200000000068e+01 1.079191199999999995e+01 3.854321999999999804e+00 4.817391999999999896e+00 5.359872000000000192e+00 6.940462000000000131e+00 4.684751999999999583e+00 2.464621999999999868e+00 6.274741999999999820e+00 8.100051999999999808e+00 1.165571199999999941e+01 8.536042000000000129e+00 1.501481199999999916e+01 1.177011199999999924e+01 4.278232000000000035e+00 1.036801200000000023e+01 7.267961999999999811e+00 1.492711199999999927e+01 2.861311999999999856e+00 8.798852000000000118e+00 9.328772000000000730e+00 1.333601999999999954e+00 1.406271199999999943e+01 1.505571199999999976e+01 6.714552000000000298e+00 6.383041999999999661e+00 1.075741200000000042e+01 1.458841199999999994e+01 9.413501999999999370e+00 7.565231999999999957e+00 1.271741199999999949e+01 1.243921999999999972e+00 7.851352000000000331e+00 3.404171999999999976e+00 7.228261999999999965e+00 1.312401200000000046e+01 6.471802000000000277e+00 1.202371199999999973e+01 2.361542000000000030e+00 1.358471199999999968e+01 1.179451199999999922e+01 6.190351999999999855e+00 6.633100000000000107e-02 7.513302000000000369e+00 9.052101999999999649e+00 5.421902000000000221e+00 1.108531200000000005e+01 1.229951200000000000e+01