-7.779850358055827382e+04
-7.779373633810547472e+04
-7.780903539151814766e+04
-7.778680477749406418e+04
-7.780486753774971294e+04
-7.780020316637260839e+04
-7.780321522089740029e+04
-7.780745416694734013e+04
-7.780285424371001136e+04
-7.780615571032006119e+04
-7.781261399854416959e+04
-7.780891420471949095e+04
-7.780199726635460684e+04
-7.781031760382902576e+04
-7.779969318051196751e+04
-7.780248307316264254e+04
-7.778206633352147765e+04
-7.781669309097911173e+04
-7.781451068795399624e+04
-7.781369914202988730e+04
-7.780256332409041352e+04
-7.780793724332799320e+04
-7.780981028361245990e+04
-7.779789210566128895e+04
-7.781578278475765546e+04
-7.779433243285435310e+04
-7.780347293428420380e+04
-7.779773523258106434e+04
-7.780319829229658353e+04
-7.780917938478948781e+04
-7.780523103464227461e+04
-7.780579102444020100e+04
-7.781246902498323470e+04
-7.780648659159570525e+04
-7.779317299802534399e+04
-7.779542248863446002e+04
-7.780177390042044863e+04
-7.779807206887191569e+04
-7.779494090030547522e+04
-7.780224116850564315e+04
-7.779403360057942336e+04
-7.780329470053523255e+04
-7.779995934271688748e+04
-7.778882158041722141e+04
-7.779083622375539562e+04
-7.780016912301861157e+04
-7.780423159218399087e+04
-7.780806072892194788e+04
-7.780587871398509014e+04
-7.780175153997038433e+04
-7.780309517600669642e+04
-7.780416113505883550e+04
-7.781094488742573594e+04
-7.779990261737938272e+04
-7.779336325077702350e+04
-7.780563341247236531e+04
-7.780500682492220949e+04
-7.780010005455973442e+04
-7.780888967908166524e+04
-7.780389080438802193e+04
-7.780171902615671570e+04
-7.780834807485494821e+04
-7.780745040844641335e+04
-7.779941903960738273e+04
-7.780529296654797508e+04
-7.778126332767789427e+04
-7.780982417073425313e+04
-7.779766807676680037e+04
-7.778648367511614924e+04
-7.779041931481016218e+04
-7.780098095797908900e+04
-7.780565993483334023e+04
-7.780841507243455271e+04
-7.780380036549377837e+04
-7.779723332649827353e+04
-7.782096937718785193e+04
-7.781781437828615890e+04
-7.780262372081882495e+04
-7.781228038239329180e+04
-7.779323507504054578e+04
-7.780338408123572299e+04
-7.780645405337124248e+04
-7.779265672143180564e+04
-7.780671465890442778e+04
-7.780776357840176206e+04
-7.781053095346238115e+04
-7.779417855180798506e+04
-7.779222972212704190e+04
-7.780714213619098882e+04
-7.780422768436599290e+04
-7.779751754680974409e+04
-7.781311368821175711e+04
-7.779528892317166901e+04
-7.781261788171104854e+04
-7.779217454429461213e+04
-7.781159136993371067e+04
-7.780549439742819231e+04
-7.780105323409954144e+04
-7.781327519821678288e+04
-7.780063428371226473e+04
-7.781831065964959271e+04
-7.780134171307126235e+04
-7.779746390459495888e+04
-7.780839926377765369e+04
-7.778056206595059484e+04
-7.780562174619683356e+04
-7.780299307108118956e+04
-7.781303434655298770e+04
-7.779830836176453158e+04
-7.779997602577350335e+04
-7.780842171495124057e+04
-7.780307118429440015e+04
-7.780491760055396298e+04
-7.780092630391762941e+04
-7.779507127452873101e+04
-7.779941312056264724e+04
-7.781326576858294720e+04
-7.780273048629488039e+04
-7.779448306362895528e+04
-7.780844421248087019e+04
-7.779709348008134111e+04
-7.780001287683741248e+04
-7.779922704675678688e+04
-7.779808798142957676e+04
-7.780389998603938147e+04
-7.780265332409729308e+04
-7.779648382675617177e+04
-7.777741376141279761e+04
-7.779328955568269885e+04
-7.780014637118158862e+04
-7.781115587773278821e+04
-7.779981202214072982e+04
-7.780368852444677032e+04
-7.780668677428507362e+04
-7.780249749019740557e+04
-7.781300427813985152e+04
-7.780802055110991932e+04
-7.780153908231981040e+04
-7.780271512763769715e+04
-7.781538837390311528e+04
-7.781255325681583781e+04
-7.781298281199279882e+04
-7.779212380830393522e+04
-7.781137576417475066e+04
-7.779671476352668833e+04
-7.780600635979943036e+04
-7.782164771118450153e+04
-7.779777334004356817e+04
-7.781174016220698832e+04
-7.780655438733001938e+04
-7.780642543577322795e+04
-7.780572000624740031e+04
-7.781660405120383075e+04
-7.780476822029621690e+04
-7.781693808557299781e+04
-7.779823230254759255e+04
-7.780460567795754469e+04
-7.780755335109759471e+04
-7.779750325687667646e+04
-7.780165218280468252e+04
-7.780566429514416086e+04
-7.779453553040811676e+04
-7.780626707029463432e+04
-7.780562903985695448e+04
-7.780047042437494383e+04
-7.779178874620272836e+04
-7.780416947562704445e+04
-7.780040606769116130e+04
-7.780668774783765548e+04
-7.780727704838495993e+04
-7.780483752821023518e+04
-7.779460431260052428e+04
-7.779651602461423317e+04
-7.781051448448319570e+04
-7.780180874916976609e+04
-7.780714778613024100e+04
-7.781439844057169103e+04
-7.780931926562573062e+04
