-5.823045205432646476e+00 2.934853308951007378e+00 -4.515984696140500354e+00 1.594487240775118941e+00 1.946742801166845283e+00 -2.931557154425774581e+00 5.923883879753721882e-01 -1.208042176159733083e+00 3.598557419647271383e-01 -3.767993131981765553e-01 3.362553784081974584e+00 4.185961980842838326e-01 9.870722962418149171e-01 3.221571958564830584e-01 -4.394884698792402844e+00 -2.508651272866299742e+00 -3.968796819697493650e+00 7.691627492476825978e+00 -1.842009933675787803e+00 -7.895200258526152703e-01 -6.187951622864897860e-01 -1.899219040625899524e+00 6.072987306608076397e-01 1.863958414736707869e+00 1.083374515770128665e+00 -2.786901222187447291e-01 -2.744862139363526410e+00 -1.301540350348562969e+00 4.229160117067674918e+00 -5.792620824989604067e+00 -1.429453257416598344e+00 -4.959797247673824461e-01 2.798136943931024412e+00 -1.088057009234522754e+00 1.701866287858508020e+00 -2.841109337279640545e+00 -5.994893641173129950e+00 -3.343061735184398309e+00 -6.126125842696762192e+00 4.563562964072970018e+00 -2.574984197248735729e+00 9.549926394467087576e-01 -2.129527682218192997e+00 -5.028133575805138200e+00 -1.949588498380985024e+00 2.843228954901014238e-01 -3.835989560247060837e+00 2.844867261970810191e+00 -2.993452868605678052e+00 2.966755045392645007e-01 -4.329090163456443263e-01 -4.983235426029533621e-01 7.190954475610878971e-01 3.407514154559225239e-01 1.249931106546622983e+00 -3.367708846346476381e+00 6.786005694234812369e-01 -4.138417137254227218e-01 -1.909544591775145461e+00 1.494343792806323679e+00 1.489386191280930971e+00 2.591903085889796898e+00 7.057987293530595951e-02 -3.473103001625278963e-01 1.997722638862874600e+00 1.477817254540107372e+00 -3.389564767685938840e+00 5.436656190870809979e+00 -2.764219976664989531e+00 -3.779756444137649662e+00 -1.216775700099912427e+00 6.189749852564545129e+00 4.332535441977357071e-01 1.691963940324592297e+00 -1.314573787571112318e+00 1.884076784416145678e+00 1.453947645038271563e+00 4.888876446431150491e+00 1.619239767175523204e-01 9.079964693180702096e-01 6.671212613462686569e+00 -1.850758884236209934e+00 -2.232933346147687015e+00 -3.508723581986805229e+00 -1.386618675208818985e+00 -3.130379035660964426e+00 -3.321896412211141847e+00 -1.412252061625092869e+00 -7.741170597607567316e-01 5.402402409062805333e-01 -5.164729613187226537e-02 7.930367810473212264e-01 -4.427914121173795792e+00 -1.272156238330566014e+00 3.183601903940311395e+00 -3.930656558029627656e-01 -9.218552307236148602e-01 -1.704700672217803081e+00 1.764545160126076651e+00 1.877352834872941523e-01 -2.116656224508194128e+00 2.362555008517960520e+00 -9.956649237171089073e-01 1.528600659938377460e+00 -2.209388724112301361e+00 6.869551127263598955e-01 4.592473993070185223e-01 -1.382106903008445964e-01 -7.885543194254098776e-01 1.238288122028633476e+00 -4.910458288150964634e+00 4.768781750502215644e+00 2.438982598966674242e+00 2.500299814887469552e+00 2.382071740007924987e+00 -2.992893396511536075e+00 2.841369018720395712e+00 -2.373621551659540696e+00 3.172087988811687076e+00 3.416373662564721414e+00 -1.547266356211608906e+00 7.462504129539861975e-01 -2.699467252416100749e+00 4.215710161098566999e+00 2.542508590534062751e+00 6.096605462199952141e-01 -9.456857594541685508e-01 2.411247592652643046e-01 -1.995618962082418291e+00 1.187849758703129366e+00 6.758442437626151822e+00 -4.738363540707269395e-01 1.227987253471775730e+00 2.878892215578545688e+00 -3.710426127442018052e-01 -5.874816942967810984e-01 1.523501133506749872e+00 4.966795276836677431e+00 -6.764470132375726141e-01 2.310542101486331656e+00 -2.214415745428786941e+00 -5.296399416505082058e+00 -2.716640680291169119e+00 9.724674006371887280e-01 -3.605075166699895917e+00 3.944470582236467848e+00 5.238602555323716992e-01 -1.260997649688203159e+00 -4.327182404753072142e-01 1.716737549772661575e+00 -1.188475051043641706e+00 -9.501101141398318739e-02 -1.657443277986384800e+00 7.325751254851970096e+00 4.226939712194047516e+00 6.068725959876313247e+00 -3.015403406549297838e+00 6.274061988619403785e+00 -2.251640180074899522e+00 6.306705745494726179e-01 -1.907129811486457216e+00 -2.289130981030539136e+00 2.117474349601742301e+00 -3.037135914926817115e+00 1.427290445258544427e+00 -3.448742311379044523e+00 -8.340191403846034524e-01 -2.678772441360253165e+00 3.488421121305801620e+00 -1.023344394198265617e+00 5.537097372610293000e+00 -4.559332470581692887e-01 2.355092123865121678e+00 1.435696410628899189e+00 1.593127127090370188e+00 -3.822978748734200405e+00 8.355956381292926949e+00 1.013023985255766979e+00 3.411694768645050502e-01 7.036542234510267946e+00 -3.237152845010157209e-01 9.076601689967750408e-01 3.379835198298743126e+00 1.838722006681351662e+00 5.153416244121760137e+00 -1.530552127399103790e-01 -9.160404233333920843e-01 -1.178305308758848868e+00 4.083000603576339316e+00 5.109401525465398386e+00 4.067270078914657638e+00 -6.152761959428824312e+00 2.548788253414271399e+00 3.490166900496623370e+00 -3.315093272684024317e-01 4.393363119815778539e+00 2.954964479540998390e+00 -2.396131561697302459e+00 1.391645696525304565e+00 4.050276114055081145e+00 -6.925678313914008788e-01 -9.268930506742706354e-01 -3.686489155031789089e-01 -4.179611355509511017e-01 -6.162626254632806999e-01 -1.255751056143593614e+00 3.088944162129890536e+00 -3.333576934838390127e+00 3.303903830801175889e-01 -2.175403365496523023e+00 -3.403554141142873579e+00 4.812323900358469464e-01 8.775835559960745158e+00 1.029375174271889293e+00 3.338594700182729635e+00 -4.981039703748295189e+00 -2.775840335473289677e-01 4.094045035228905394e-01 1.769016308893142764e+00 3.758634315701073758e-01 -2.127217802947156400e-01 -1.136664232737194524e+00 -5.657029574806002437e+00 4.957119186399657096e+00 -2.837913455785987082e+00 -1.735353880861115972e+00 -3.944709694850232928e+00 -1.239337132205150516e+00 3.286222352899441201e+00 -6.023927568911613406e+00 1.137641252019244931e+00 -3.214574957843326697e+00 4.733489242931187668e+00 9.592555288404961411e-01 5.364956859526543997e-01 5.286789146314431420e+00 1.312386807041344250e+00 -1.415763160392376374e+00 -2.693178333563746030e+00 -5.619391192516705935e+00 1.021071024595137100e+00 2.846155384761092311e+00 -1.511804670038584986e+00 -2.843722092528112810e+00 1.723006414018700472e+00 -3.202726285055431887e+00 -1.143121815970871591e+00 1.225171895277446937e-01 -2.929818574324399849e-01 -3.569925612476453070e-02 2.442708127755333969e+00 -7.408022449048694558e-01 -1.476291561798084739e+00 1.039245125903295180e-01 4.044064842524615955e+00 3.285870111737228538e-01 -5.372896426744888654e-01 4.042503668556034491e+00 5.616544981081891486e+00 2.125107955518603209e+00 -9.691352506647229470e-01 3.235120644903492604e+00 -3.563986363682937419e+00 -4.635105972332107527e+00 4.037728101149507864e+00 -6.136925505308139961e+00 -3.463420740540161358e+00 3.666948769390784846e-01 -3.496121061689706710e+00 4.810616687718255458e-01 5.722211673318318148e-01 -1.815528083146154659e+00 -2.905541702048151542e+00 1.789341909504510442e+00 -4.492082690736154404e-01 -1.785082105434771416e+00 -1.153043189669753943e+00 -2.584466940712045524e+00 2.749028869491133009e-01 -4.026115455651329000e+00 -3.127808960728497567e-01 -2.625142824527169072e+00 -3.789556461757288108e+00 -5.606807184163899116e+00 -9.550332628800152213e-01 -4.617199779995501352e+00 6.136022533803255463e+00 -2.795077845136857864e+00 1.469410774949077458e+00 8.952453392459658321e-01 -1.549010592740405867e+00 1.934758888341487237e+00 -3.160394096446895951e+00 6.243199492161463082e-01 -9.760715733466044375e-01 1.073003713201503284e-01 -1.171788075926899042e+00 -4.995683680124202830e+00 -7.641252378294317582e-01 -5.274565606654634031e+00 9.782950635442808629e-01 -9.560215950169100863e-01 2.197896406252016988e+00 7.770532598136548064e-01 -3.169684007157168804e+00 -1.377597187690772149e-03 -2.901936500897386306e+00 2.245997122390047451e+00 1.429868747721807054e+00 -1.178509454366729603e+00 1.493123547145110530e+00 -4.760777391478850262e+00 -6.113723868462821454e-01 1.976769689028296195e+00 -2.533765810621737558e-01 2.263188033768058147e-02 3.502567846289213360e+00 -1.696148153955140625e+00 -7.242386827500700841e-01 -1.872009567841476319e+00 1.122631664743580115e+00 -6.378352112109491046e-01 -1.091447266143237060e+00 1.617280586404675313e+00 1.779229759935291089e+00 -4.517436341105356412e+00 2.023084516762873708e+00 -1.587185821414155429e+00 -4.720201266474630675e-01 -3.868999442242813558e+00 1.047861921750303127e+00 8.076154513975344340e-01 3.969609288363618926e+00 6.209734010647870450e-01 -1.920055776587981544e+00 1.580632078914297745e-01 -4.258980288217872001e+00 6.682451934750986700e-02 -3.233502906660687959e+00 5.950968911134851602e+00 -7.103784301045686256e+00 3.999343070440455339e+00 -1.679966143541015589e+00 4.914592108155386718e-01 -6.174936697586639323e-01 -5.007126118579035001e-01 3.527073032545056996e+00 3.607176786597653173e+00 -1.846270766186876022e+00 1.008573919536365882e+00 2.140182334599288083e+00 3.284270885438714815e-01 1.167492790630601629e+00 -1.331370805912254429e+00 2.731930517834580296e+00 -3.338264570509531293e+00 -1.569187069356091868e+00 -1.890934945555463376e+00 2.532793933546434673e+00 1.514934731285868974e+00 1.571258864454712967e+00 -1.137646394225992480e-01 -2.124401930532153315e+00 1.901141197508164682e+00 -4.971506052438183221e-01 -7.907839802711834343e-02 -2.125793411678062461e-01 2.363078999385544332e+00 -6.590421860588606684e-01 5.129176395734094118e-01 -2.895152387535234517e+00 -3.182271100834024313e+00 -1.657250959454023287e-01 6.706620306464859960e-01 -3.440640764648149386e+00 -9.125972016951772181e-01 -3.907315567381447252e+00 -1.441080815314345287e+00 -3.754885646982049630e-01 -9.283534373905982795e-02 2.062163745382856739e+00 -1.218165638583797561e+00 1.061165324827103351e+00 -2.793737786058424710e+00 -3.721309608023382953e+00 -5.317236152467163635e+00 -2.531871421655909948e+00 1.684780791718824000e+00 3.615520017045687595e+00 1.114420589008960238e+00 3.133827913726601633e+00 4.322423292408137385e+00 3.555569599678412018e+00 -4.729909752814161483e-01 3.619155042995588545e+00 -1.998807130265950249e+00 3.212031622385947749e+00 1.540660163202925315e+00 2.161980663223177501e+00 -8.906728890059708581e-01 -1.211554303368366226e+00 8.719639981960591868e-01 3.614333195728333337e+00 -1.020257013266986812e+00 -5.802923750429159755e-01 -2.214755131074130468e+00 -2.178090168522160752e+00 1.406110724106394982e-01 7.243980911592465266e-02 7.294431101993490429e-01 -2.170719329370104145e+00 2.067104377625982092e+00 -3.514441201669497861e-02 -4.078916662977370433e-01 1.514016333160741690e+00 3.581873015633902479e+00 -3.465507962259025687e-01 -4.804105111313727861e+00 -1.264426987368199473e+00 1.282379973786209160e+00 -9.481853861541928996e-01 -1.910561206049152361e+00 1.211242685639459804e+00 6.551145685450188161e-01 -2.827061856886457836e+00 -5.787646768402618491e+00 3.954716943401799523e-02 -1.489687010375667642e-01 1.526179194780917125e+00 -2.923784194706052997e+00 1.483529732016052538e+00 -2.696472431206279108e+00 3.836703298543631818e-02 2.560190068435796995e+00 1.182103856883324866e+00 9.465208538299842989e-01 2.494386791348366939e-01 -3.927570205539698822e+00 1.042352561440889502e+00 -3.481345959041733940e-01 -3.625937099475041059e+00 -2.521431713516865791e+00 -3.489564748086475099e+00 -1.503820365621535871e+00 -1.551471652889822916e+00 -1.583554395008977211e+00 -8.063216721798300846e-01 9.383481389577017495e+00 2.315923935068404216e+00 3.480823510836174695e+00 -1.328908717321487964e+00 3.628554482709586360e+00 -4.194070726663179371e+00 1.355145798809933799e+00 -1.940484735554976359e+00 6.202462930306716915e-01 -3.802927227742483041e+00 5.091759642555620857e+00 -1.726799819936428948e+00 -4.691379197654149680e-01 -8.022048214576754654e-01 -1.335021772703073317e+00 7.374680380497043997e-01 -1.269780538813159720e-01 2.949689603859277032e+00 3.506079973497846503e-01 2.218342848721953919e-01 1.684662520963628562e+00 -3.265004579417359221e+00 2.056544341849043889e+00 -4.602285323544668127e-01 -5.100940538482843234e-01 -1.722118354913384275e+00 2.575471678448411961e+00 -8.292250610337855710e-01 -1.506948369986120584e+00 -3.577493912367618822e+00 -1.452385442628340850e-01 4.096433076042505839e+00 -2.363645156348458620e+00 -4.399493144479630580e+00 5.063325296123911690e-01 2.066618439088331094e+00 -2.131352651392928177e+00 -3.443321911246365108e+00 1.228362634564352796e+00 -1.680939563278342597e+00 4.151824412907328288e+00 -4.776744971871599299e-01 -2.413900971334421719e+00 -9.323386476200135053e-01 2.094312821969055716e-01 3.944151765418114408e+00 -1.608551176229894075e+00 1.995147935944335149e+00 5.173908452231749777e+00 -5.387968234722200211e-01 1.210907927980188870e+00 2.567235405900728296e+00 -7.880915208181229481e-01 1.385321810667066167e+00 -4.504255322549149732e+00 -1.581525280226361740e+00 1.645099924909367572e-01 -9.256851463092516941e-01 -2.736929257013953620e-01 3.453989419144328776e-01 -1.572059506045319299e+00 -3.659856637844449700e+00 4.360775927214680436e+00 -5.438685819874100602e-01 -1.658100452008732573e+00 -8.313019983391545242e-01 1.200318067404114286e+00 4.352728887875310648e-01 7.819203585002890700e-01 -5.190594913127818261e-02 -2.636669595172661751e+00 1.656150012989355158e+00 3.452801569385625657e-01 -1.588797389008863581e+00 5.588401169331422835e-01 -2.924632658819412701e+00 1.127519846477879728e+00 2.171862956150777624e+00 2.300360017905344279e+00 3.142223594683461574e+00 -4.170635119410844638e+00 1.719232548486612666e+00 2.568845945054086810e-01 -3.046130148749101707e+00 2.679398247921440102e-01 1.635705113181442905e-01 -1.152171585626030170e+00 -4.187838886305723651e-01 -2.687093560319272267e+00 -2.717591474318806544e+00 1.928577441610158427e+00 -1.407360280346069692e-01 9.057945763887341462e-02 -1.252383424944568890e+00 1.970447860052756850e+00 3.251202382286039416e+00 -1.048243473490977573e+00 3.875665799070444062e-01 1.400768999736954346e+00 -6.960007686161203688e-01 5.356769952163638493e+00 -5.194873229141848681e-01 -1.875775720063442398e+00 -3.224585805939617966e+00 1.782494032778688009e+00 -9.681201790527401707e-01 1.727051788067062832e+00 1.031055133216340680e+00 2.076264190505540341e+00 -1.063165643251932524e+00 -5.101984406452613197e-01 2.585978749495849272e+00 2.815099027108765473e+00 2.850047521048375110e+00 5.403957412383288528e+00 8.774095951418020567e-01 2.742637106503825750e-01 4.651059154545963414e-01 -7.689578837308568282e-01 -6.564299450310632222e-01 -1.910820887489908193e+00 3.075350224371848906e+00 3.620674050868838978e-01 -4.403580170402649624e-02 -1.133920351216657796e+00 -4.586705465540690696e+00 -2.567087310346396478e-01 -1.760629883908428894e+00 -3.760315817307550157e-01 4.810925220123112855e-01 1.431390326698431803e+00 -6.096471764824513695e-01 -8.587156167314585753e-01 1.721441640505395831e+00 7.563270812966468304e-01 -3.810757780177777221e+00 3.283284610184518559e+00 -3.110085830952107333e+00 -1.242461022804337123e+00 -8.821424822323231663e-01 -7.867658599185833879e-01 1.622469073013036583e-02 -3.867628529923894387e-01 3.434178553428399283e+00 -4.415295145815105293e+00 2.940902600968922087e+00 7.128538370108113142e-02 8.591722446906483457e-01 9.414182420743084645e-01 8.650898962158239947e-01 8.192563790328251383e-02 -3.580821948574686719e-01 -1.266675160158264424e+00 -1.153710133884922051e+00 -3.621956003011024272e+00 3.785593363016887203e+00 1.442932009743493005e+00 -1.499747737877410669e+00 1.805884902832319394e+00 1.422118413711775387e-01 -4.519917455861089395e-01 5.197043240389349616e-01 2.737033643810930617e+00 2.158606861376055175e+00 4.042653820993064584e-01 7.194744281983884715e-01 1.790880457763402323e+00 1.237194374653411977e-01 -1.726148302341504071e+00 -1.319644003424278234e+00 -5.435060564117020210e-01 3.931674714965658346e+00 -2.319846924596173032e+00 -1.177782346332614249e+00 -4.669190575538115784e-01 2.356561766553594950e+00 7.394544725163149090e-01 4.688782383246595797e-01 3.070152996012017077e+00 -2.265567847050862227e+00 6.500947463179799213e-01 -4.515834029482793888e+00 -2.377611389875029069e+00 8.981630273545726517e-01 -1.153144491142682471e+00 1.900444428493860194e+00 -1.786320348819601667e-01 -2.467199944273633094e-01 -1.828360974305546449e+00 -3.365072951167639825e+00 -3.389830105554116457e+00 -1.611296600412455149e+00 2.569757658310442228e+00 -2.503762576911325421e+00 -1.318424271983739571e+00 -1.879501248852102346e+00 -3.874416242830769908e-01 1.157508682009398049e+00 -1.112803364986829857e+00 5.606682742760606963e+00 -1.344339965550458649e+00 2.017888316844390850e+00 -2.672024323445334915e+00 2.157628813652655797e+00 2.290905556579146740e+00 2.725678108650133158e+00 2.185098482098509209e-01 -6.040863941055615527e+00 4.513438275359072382e-01 3.224950388398025170e-01 1.552145796194437377e+00 1.524438557796843341e+00 -3.780036180184721123e-02 -1.741105439108342701e+00 -2.344900270091313743e+00 -6.843176748854991054e-01 3.953122859310034265e-01 -6.020356820546056698e-01 2.479919192663902816e+00 2.536191389544595776e+00 -4.851504944672055508e+00 7.061782242110348218e-01 4.310591074681835444e+00 8.723897729147631619e-01 4.714562836775852972e+00 2.966248023807328327e+00 5.072308731312026309e-01 -1.597724774143428339e-01 1.603223335818672046e+00 -2.359817811866195658e+00 3.658312947378810520e+00 -1.233255444284725222e+00 2.116071555600988141e+00 -1.893197516524421475e+00 -2.589455909698598624e-01 -6.602161518593451239e-01 -1.135745834612067684e+00 -2.545603684775462394e+00 -3.583238271525399199e+00 -3.273912938386958515e+00 3.545264617356156833e+00 -4.778853276638129199e-01 -2.241793882594532938e+00 1.637404612511535351e+00 -1.606161078533594466e+00 5.444088222283163248e+00 3.841372422270482589e-01 -2.030914554977493458e-02 1.045924852468469888e-03 -1.725347146530222808e+00 -2.514642972168641410e+00 3.076564299384964674e+00 3.984960318167326321e+00 -1.972859555017396405e+00 2.308328381481475677e+00 7.783470390313592668e-01 2.170518783306946364e+00 -2.751927017214098825e+00 1.329746382800677029e+00 8.895914829269438440e-02 8.296873454203977927e-01 -4.711078991704331087e-01 5.884247750142969080e-01 1.443167522812534465e+00 5.319839137522816008e-01 -1.510893471002904553e-01 1.022297440904447630e+00 5.795501489209626378e+00 -5.188895413797725453e+00 -1.404783006324156425e+00 5.715742777229797511e-01 -5.406084229094109794e+00 -3.508404765168451345e+00 -4.960841115643593868e-02 -1.657919446331215907e+00 -4.156461140731669168e+00 -1.690869164508021161e+00 3.919389983045564775e-03 -3.184829348690971340e+00 6.665279535317267801e+00 3.412373025715063068e+00 8.897217350238612710e+00 1.448056218767509007e+00 -2.222720923546888105e+00 -2.910222652850521285e+00 6.413103145309991815e-01 -3.184927050619176470e+00 -5.400083273819622498e-01 6.705838691039219812e-01 -1.459044086145850239e+00 1.108870605266240483e+00 3.210886452943250147e-01 2.215269865969569096e+00 9.659033737238357231e-01 -1.763284291031557149e+00 -1.070002721343584762e+00 9.886252426795999471e-02 -1.146938361818964774e-01 -2.038334245093652353e+00 -3.463193969222591040e+00 -5.366791598894099735e+00 -6.256502381017587933e-01 -2.148592413735041617e+00 -4.223287716961878324e+00 7.179003987129380926e-01 1.272242627403926241e+00 1.149612309327733506e+00 -2.978268446300594285e-01 6.955307709193867538e-01 2.332024698615916325e+00 -1.087552558752580056e+00 1.428776543008609901e+00 1.214543468150765193e+00 -3.628679438333553886e+00 1.256903938896412720e+00 -3.361501688581408631e-01 -2.831688814517977271e+00 3.568259537490219846e-01 1.453234420962374873e+00 -2.241062660795019035e+00 -1.867092589749390186e+00 -9.959492877502530428e-01 -9.327063154024693992e-01 -3.593672323237020461e-01 3.397022510132030604e+00 1.042756224670578602e+00 4.162775256397088341e+00 4.593542543632343822e+00 1.941624762790926439e+00 -2.131977429512765809e+00 1.721901868009309000e+00 -2.356488232997103749e-01 2.816058562887873595e+00 3.161947042884681203e+00 -3.196049643814305341e+00 4.446276427248918139e+00 -1.015141545994441952e+00 1.328627952833067116e+00 -1.409004758063962637e+00 2.496809799167851729e+00 -1.714384990185619628e+00 1.159073969743377397e+00 -1.818027195625503856e+00 1.283952460609634860e+00 9.972209554789425168e-01 1.506146699954164836e+00 3.531123548800166656e+00 3.915366720486216590e+00