-3.426811596614327016e+01 1.815337910236076269e+01 3.093974731499695707e+01 1.815337910236076269e+01 -2.909574428037588945e+01 9.886106708915222141e-01 3.093974731499695707e+01 9.886106708915222141e-01 -9.848608725778621675e+00
2.474993032335737908e+01 1.129395101212373120e+01 1.505085346541083524e+01 1.129395101212373120e+01 -3.094848199801536381e+01 1.790215758212206509e+01 1.505085346541083524e+01 1.790215758212206509e+01 -4.594507311037783381e+01
-1.060637666996828727e+02 -1.369698074250327124e+01 2.352571611660587436e+01 -1.369698074250327124e+01 -3.955533633118322001e+01 -9.007174240848982549e+00 2.352571611660587436e+01 -9.007174240848982549e+00 -6.096786468086816058e+01
2.464462415724716138e+00 -1.559408740743141664e+01 -1.530641654618784031e+01 -1.559408740743141664e+01 -1.393850125945587592e+01 3.107984705621255017e+01 -1.530641654618784031e+01 3.107984705621255017e+01 -9.698976960684221638e+01
7.433186806184531648e+00 -1.990308090168844757e+01 7.776499109020821976e+00 -1.990308090168844757e+01 -5.657521798996618401e+01 1.015242949696139796e+01 7.776499109020821976e+00 1.015242949696139796e+01 -7.481466353141661330e+01
-6.027336333788277045e+01 -5.208870867957689654e+01 -4.353656954255951561e+00 -5.208870867957689654e+01 -3.554559535668888159e+00 -6.313313214870252210e+00 -4.353656954255951561e+00 -6.313313214870252210e+00 -9.097045834586766944e+01
1.020466229946151415e+01 -1.352244031964724869e+01 7.090459440723803297e+00 -1.352244031964724869e+01 -3.224588832619622991e+01 5.928206346879528965e+00 7.090459440723803297e+00 5.928206346879528965e+00 1.871013240106366382e+01
-7.550077736022085162e+01 -1.510443294517124713e+01 -3.867507609043916439e-01 -1.510443294517124713e+01 -8.315587224909222641e+01 -4.587587445614029313e+00 -3.867507609043916439e-01 -4.587587445614029313e+00 -8.042757110664170739e+01
-7.673644191763094113e+01 -2.255552079737331539e+01 3.330152258761734263e+00 -2.255552079737331539e+01 -4.444191835814729785e+01 -3.325150777185164941e+01 3.330152258761734263e+00 -3.325150777185164941e+01 -8.876640820986345659e+01
-6.328140956137389139e+01 1.071878659421590996e+01 -6.987526540813640885e+00 1.071878659421590996e+01 -2.026525921889269277e+00 -1.330540157499064158e+01 -6.987526540813640885e+00 -1.330540157499064158e+01 -9.216919781857622951e+00
4.097095730021876214e+00 1.786566599193069749e+01 -2.980135655237906533e+01 1.786566599193069749e+01 -6.413573673438955325e+01 -1.425901856401350587e+00 -2.980135655237906533e+01 -1.425901856401350587e+00 -4.272993465656601586e+01
-1.084904558737203217e+02 6.721621117820518521e+00 -2.407795870270406269e+01 6.721621117820518521e+00 -2.321807389758588869e+01 -7.021783665988606593e+00 -2.407795870270406269e+01 -7.021783665988606593e+00 -6.606727363497370220e+01
-5.839870138598723059e+01 -6.798909957979463847e+00 3.476765694129014150e+01 -6.798909957979463847e+00 -2.832665024968835255e+01 -4.663531098544694942e+01 3.476765694129014150e+01 -4.663531098544694942e+01 -2.390653133548878628e+01
1.802790421939998211e+01 4.222033839540491940e+00 5.020671658868593568e+00 4.222033839540491940e+00 -6.775638221275154649e+01 6.781831013771221883e+00 5.020671658868593568e+00 6.781831013771221883e+00 -4.472369673667018475e+01
-3.369518262363664718e+01 -1.800431160632854954e+01 -2.053432919888294350e+01 -1.800431160632854954e+01 -7.670640739584780476e+01 1.411274621737950064e+01 -2.053432919888294350e+01 1.411274621737950064e+01 -3.348604796151862217e+01
-8.604587711847106846e+01 7.002311059225067247e+00 -2.739807885495370243e+01 7.002311059225067247e+00 -8.113292866817678828e+01 -6.524064151257984001e+00 -2.739807885495370243e+01 -6.524064151257984001e+00 -4.335735047985250645e+01
-1.215422065550726387e+02 4.830392402462908130e+00 -2.260831140250748827e+00 4.830392402462908130e+00 -8.011920064759202376e+01 1.318299968695104774e+01 -2.260831140250748827e+00 1.318299968695104774e+01 -1.177414932544861301e+02
-6.948374753037769835e+01 -5.261468289395908826e+00 -1.129016840717014425e+01 -5.261468289395908826e+00 -5.853458340445211405e+01 3.063652362565845166e+01 -1.129016840717014425e+01 3.063652362565845166e+01 -4.901250790903530685e+01
8.729065397986447650e+00 -5.559731953408127758e+00 5.643758552081720836e+00 -5.559731953408127758e+00 -1.623277755023635294e+01 -5.160698051563578082e-01 5.643758552081720836e+00 -5.160698051563578082e-01 -8.060157737885717211e+01
-1.075246117397043832e+02 -3.588061093108974831e+01 -7.286285878331354660e+00 -3.588061093108974831e+01 -7.424601170686163698e+01 1.219586100392927541e+01 -7.286285878331354660e+00 1.219586100392927541e+01 -1.391153967972702787e+02
-8.158940985328003137e+01 8.326728032122913348e+00 2.841008776622614462e+01 8.326728032122913348e+00 -9.907923836351588420e+01 -2.868114646104389820e+01 2.841008776622614462e+01 -2.868114646104389820e+01 -8.118957596257891396e+01
-8.137105025876145703e+01 -1.554199212848282130e+01 -4.458395430868899112e+00 -1.554199212848282130e+01 -8.070534571198625429e+01 1.838639172716845138e+01 -4.458395430868899112e+00 1.838639172716845138e+01 -5.866636257528845277e+01
-3.373073216190313417e+01 -4.110154746535867787e+01 -1.123695377977502829e+01 -4.110154746535867787e+01 -1.064947581331320094e+02 -2.017880249428694128e+01 -1.123695377977502829e+01 -2.017880249428694128e+01 -6.063088576760345738e+00
-1.797033040861946418e+01 -2.443005890010178094e-01 4.992085233754730211e+01 -2.443005890010178094e-01 1.192198635137578222e+01 3.285070117879028828e+01 4.992085233754730211e+01 3.285070117879028828e+01 2.148205203228135218e+01
1.166845384803273333e+01 8.607615762930503678e+00 -2.393637811390286174e+01 8.607615762930503678e+00 -8.580784824909783026e+01 -1.924394264227172080e+00 -2.393637811390286174e+01 -1.924394264227172080e+00 4.055041612380847482e+01
-1.243358409965549498e+02 3.260671231072151954e+01 -6.878029471497356440e+00 3.260671231072151954e+01 -1.733561294225101506e+02 -6.691253986881191551e+00 -6.878029471497356440e+00 -6.691253986881191551e+00 -1.270676793767331674e+02
-4.013084297366502540e+01 -2.585918337149403445e+00 2.834725623779731407e+01 -2.585918337149403445e+00 -9.659160555249010827e+01 9.936503886282169740e-01 2.834725623779731407e+01 9.936503886282169740e-01 1.370123060011815497e+01
-3.880198384353197838e+01 8.101976289603891601e-01 5.625404113791112337e+01 8.101976289603891601e-01 -4.226208547870083976e+01 -2.097282761598663825e+01 5.625404113791112337e+01 -2.097282761598663825e+01 -3.122193293506667189e+00
-9.377097497515745772e+01 2.119807609462495535e+01 -1.765498341235598545e+01 2.119807609462495535e+01 -1.161690829225152726e+02 -3.928579235904872746e+01 -1.765498341235598545e+01 -3.928579235904872746e+01 -4.880274995863248222e+01
-9.059487992678928947e+01 2.185805976309903809e+00 2.783247999793057303e+01 2.185805976309903809e+00 -1.335451540028187445e+01 -3.330936541989672151e+01 2.783247999793057303e+01 -3.330936541989672151e+01 -1.273246329864608413e+02
-7.612755427043646250e+01 9.544942472456559912e+00 -2.609311843289881594e+01 9.544942472456559912e+00 -1.112522971811420973e+02 -2.987142210537118459e+01 -2.609311843289881594e+01 -2.987142210537118459e+01 -4.712861245901832064e+01
-8.342827776774618087e+01 1.600183457995756697e+01 3.827283708585778754e+01 1.600183457995756697e+01 -1.132643108424655765e+02 -7.166059375301718326e+00 3.827283708585778754e+01 -7.166059375301718326e+00 -1.233112658497597209e+02
-7.834828605591049211e+01 2.829331376291391820e+01 -1.556947371764397481e+01 2.829331376291391820e+01 -6.170723380447677897e+01 5.267094224691023641e+01 -1.556947371764397481e+01 5.267094224691023641e+01 -5.551367218404363513e+01
-1.250535773771875858e+00 -1.470294207630903038e+01 1.366482875846288891e+01 -1.470294207630903038e+01 -6.811660326989557745e+01 2.498394848575518168e+01 1.366482875846288891e+01 2.498394848575518168e+01 -7.705117375455040474e+01
-3.547037268219742856e+01 1.657583595472852167e+00 8.705682092956140039e+00 1.657583595472852167e+00 -8.135723240898401798e+01 1.391869813063603623e+01 8.705682092956140039e+00 1.391869813063603623e+01 -2.014178566200774156e+01
-6.369129890902170388e+01 1.895210020515998650e+01 -9.591925444503576870e+00 1.895210020515998650e+01 -7.518636655544918312e+01 -1.152934761605132685e+01 -9.591925444503576870e+00 -1.152934761605132685e+01 -3.184545460195630540e+01
-2.362838634982977748e+00 3.820465278775334639e+01 1.611299037983258842e+01 3.820465278775334639e+01 -9.099027758926682452e+01 7.058826962201232291e+00 1.611299037983258842e+01 7.058826962201232291e+00 -1.980747643017308235e+01
-3.924703021379228574e+01 -4.523445439855856343e+00 -3.014030676669165132e+00 -4.523445439855856343e+00 -5.593786900714042609e+00 -1.840341840527417361e+01 -3.014030676669165132e+00 -1.840341840527417361e+01 -2.179872466640939876e+01
-4.318698103187804804e+01 -2.772084185303661030e+01 1.715546645821545724e+01 -2.772084185303661030e+01 -9.232240392640217408e+01 -1.267604025990191730e+01 1.715546645821545724e+01 -1.267604025990191730e+01 -2.888341435865494233e+01
-7.939278914677586840e+01 2.278806093806787203e+01 -2.428979924229920684e+01 2.278806093806787203e+01 4.082405048937420844e+00 2.627982207687212934e+01 -2.428979924229920684e+01 2.627982207687212934e+01 -7.031466956918787048e+01
-7.424539322689901155e+01 6.455619810017868332e+00 1.091602678900319745e+01 6.455619810017868332e+00 -1.705738599650774461e+02 -7.077691718037426583e+00 1.091602678900319745e+01 -7.077691718037426583e+00 -6.704837060189348108e+01
-4.321654866106877435e+00 -8.426642078812609071e+00 -6.834145077781946043e+01 -8.426642078812609071e+00 -5.595153994680021725e+01 -1.633949076554030455e+01 -6.834145077781946043e+01 -1.633949076554030455e+01 -5.230291869225158763e+01
-5.474371834406616699e+01 -1.274293656884150572e+01 4.050097915607558718e+01 -1.274293656884150572e+01 -5.281176719222223426e+01 2.131173090234599599e+01 4.050097915607558718e+01 2.131173090234599599e+01 -8.359851155413757340e+01
-5.737722820373566179e+01 5.097712346831086450e+01 -2.160912701856780771e+01 5.097712346831086450e+01 -9.917296847614666433e+01 3.824267475937242011e+01 -2.160912701856780771e+01 3.824267475937242011e+01 -9.345440188118760716e+01
-1.315296689571893012e+02 4.371386774815233878e+01 2.701014668358163462e+01 4.371386774815233878e+01 -1.031657075732096871e+02 2.445600990530354224e+01 2.701014668358163462e+01 2.445600990530354224e+01 -1.149364482112567885e+02
-5.234798133231634409e+01 2.224596084414031338e+01 1.904168573282630206e+01 2.224596084414031338e+01 -7.262788293470535450e+01 -3.959473371573356548e+00 1.904168573282630206e+01 -3.959473371573356548e+00 -1.254236889573680536e+01
-1.997095068344960467e+01 -2.124471913418754099e+01 -3.521774497302648399e+01 -2.124471913418754099e+01 -4.614605467104458825e+01 2.264604715945550595e+01 -3.521774497302648399e+01 2.264604715945550595e+01 -7.402146185703883496e+00
-5.904096025167991968e+01 2.259022625782479921e+01 2.475229898682304963e+01 2.259022625782479921e+01 -3.616651582919352137e+01 -5.745113141172046411e+00 2.475229898682304963e+01 -5.745113141172046411e+00 -5.329181856675612039e+01
-9.430932992679753113e+01 8.100611580376067877e+00 -1.023098164811334954e+01 8.100611580376067877e+00 -5.570882427663231340e+01 -3.883743514040939715e+01 -1.023098164811334954e+01 -3.883743514040939715e+01 -7.381844034383647113e+01
-5.287438868803251069e+01 6.220590780421642735e-02 -6.517520411878534148e+00 6.220590780421642735e-02 -5.341149312038944430e+01 -1.695684321339902212e+01 -6.517520411878534148e+00 -1.695684321339902212e+01 -8.858527126271992813e+01
-9.278533172813840224e+01 8.616970128595229372e-01 1.916167056215175801e+00 8.616970128595229372e-01 -4.029148413932751538e+01 1.657772063513400695e+01 1.916167056215175801e+00 1.657772063513400695e+01 -1.183076040188788909e+02
-4.700768456056464828e+01 5.091694160823669080e+01 1.468898837330140061e+01 5.091694160823669080e+01 -9.415454016258469494e+01 -1.209929307508276253e+01 1.468898837330140061e+01 -1.209929307508276253e+01 -7.800596105303429795e+01
-3.634749960700114713e+01 -9.030562036198944043e+00 -1.795279655239127337e+01 -9.030562036198944043e+00 -1.288115946674133427e+00 -1.121191955997113787e+01 -1.795279655239127337e+01 -1.121191955997113787e+01 -3.862002497786546940e+01
-4.821038288742875721e+01 -3.219449467788278696e+01 -3.584880702289399323e+01 -3.219449467788278696e+01 -3.781804096588798103e+01 1.165926103193705288e+01 -3.584880702289399323e+01 1.165926103193705288e+01 -1.463541855255120439e+01
-6.986943432595714931e+00 -1.527788240014737298e+01 -2.166378457369851418e+01 -1.527788240014737298e+01 -5.987548594081633979e+01 -9.268016542343994857e+00 -2.166378457369851418e+01 -9.268016542343994857e+00 -8.102499341096527985e+01
-5.736614913895193268e+01 -2.431305978875254326e+01 -1.398023334541200846e+01 -2.431305978875254326e+01 -1.047000839764964013e+02 4.906307940545756807e+00 -1.398023334541200846e+01 4.906307940545756807e+00 -6.560469272093840232e+01
-4.376204169975412839e+01 -3.087765997424818920e+01 2.120365720390795872e+01 -3.087765997424818920e+01 -2.177460212719547883e+01 -6.640519504420546504e+00 2.120365720390795872e+01 -6.640519504420546504e+00 -1.193132213194519835e+02
-2.147553194842127411e+01 1.156315554850077199e+01 2.130076459950940304e+01 1.156315554850077199e+01 -2.839755380312462663e+01 -3.950368047748209221e+01 2.130076459950940304e+01 -3.950368047748209221e+01 -3.764441482298483521e+01
-6.813851466597175488e+01 2.509832832304163541e-01 1.774433563244054568e+01 2.509832832304163541e-01 -2.232427052109471433e+01 1.048890351422621947e+01 1.774433563244054568e+01 1.048890351422621947e+01 -6.088849016874750220e+01
-9.867950661821747360e+01 -1.453489254663842090e+01 -2.186831365167668295e+01 -1.453489254663842090e+01 -2.116014525027322790e+01 -5.520631543438159206e+00 -2.186831365167668295e+01 -5.520631543438159206e+00 -4.195751465882923270e+01
-1.185929947702473441e+02 -2.386818505272107205e-01 6.436146211315102228e+00 -2.386818505272107205e-01 -7.773173561784912522e+01 5.062513523460568621e+01 6.436146211315102228e+00 5.062513523460568621e+01 -6.451458925429032831e+01
-7.959040227674086054e+01 2.078358773675554971e+01 -6.067396402668343569e+00 2.078358773675554971e+01 -8.843738862625900765e+01 5.239414967233783926e+01 -6.067396402668343569e+00 5.239414967233783926e+01 -2.512625098877851926e+01
-7.331172714431284021e+01 3.364154642732116685e+01 -2.097017407637588260e+00 3.364154642732116685e+01 -8.241728011273642096e+01 -2.606935483878261017e+00 -2.097017407637588260e+00 -2.606935483878261017e+00 -4.704236063830693837e+01
-3.968353184917985743e+01 -1.249655543477046749e+01 -1.025795909349403168e+01 -1.249655543477046749e+01 6.194967775048229042e-01 -5.455333156430033803e+00 -1.025795909349403168e+01 -5.455333156430033803e+00 6.365661039536763433e+00
-1.978688124302067664e+01 2.510724922539428139e+00 -9.682484750243471439e+00 2.510724922539428139e+00 -7.421751144822195556e+01 -1.271752508356389200e+01 -9.682484750243471439e+00 -1.271752508356389200e+01 -2.091527966503270974e+01
-4.491218211897133017e+01 6.273211616626374365e+01 1.793336229964479500e+01 6.273211616626374365e+01 -5.480509377985800512e+01 -6.206687525257317262e+00 1.793336229964479500e+01 -6.206687525257317262e+00 -2.008259054165057123e+01
-7.154201124220490371e+00 -2.124357735269634162e+01 1.232230716580634855e+01 -2.124357735269634162e+01 2.110158621190912953e+01 -1.240720626208586630e+01 1.232230716580634855e+01 -1.240720626208586630e+01 -1.055834523303282957e+01
-7.787461320909118001e+01 1.136762251072521579e+01 1.612352216369927405e+01 1.136762251072521579e+01 -4.091149324095839290e+01 8.121679808591141025e+00 1.612352216369927405e+01 8.121679808591141025e+00 -1.157396877158103337e+02
-5.319756013751210588e+01 -6.082706276829079428e+01 -1.388527891142775594e+01 -6.082706276829079428e+01 -7.718573798470110825e-01 7.717370156516784263e+00 -1.388527891142775594e+01 7.717370156516784263e+00 -6.858384661536295823e+01
-2.135812178917916526e+01 3.283530251230188668e+01 1.625355340071675414e+01 3.283530251230188668e+01 -9.468950151536245130e+01 -4.224955087704893231e+01 1.625355340071675414e+01 -4.224955087704893231e+01 -9.054119478721356984e+01
-6.099945381384626586e+01 -5.555026561403483498e+01 -2.907019782136622510e+01 -5.555026561403483498e+01 -2.399875774222002534e+01 3.444792338802940446e+00 -2.907019782136622510e+01 3.444792338802940446e+00 -6.931672404487481742e+01
-5.051078557996939367e+01 -1.001298675244948910e+01 -1.580721466653244889e+01 -1.001298675244948910e+01 -7.026580747958470852e+01 2.815960309105805237e+01 -1.580721466653244889e+01 2.815960309105805237e+01 -9.970050305082992281e+01
-9.831888191051945114e+01 -4.621505490785888348e+00 1.607729334411089184e+01 -4.621505490785888348e+00 -1.001375938920169091e+02 7.902427554083212513e+00 1.607729334411089184e+01 7.902427554083212513e+00 -1.160248650680557319e+02
-1.159518404617228526e+01 3.955237343204211165e+00 -7.252274620931939531e+00 3.955237343204211165e+00 1.720284180242726180e+01 -2.187774484173196399e+01 -7.252274620931939531e+00 -2.187774484173196399e+01 1.661596663475485869e+01
-8.706411935634511678e+01 2.862109229652386233e+01 -9.979925938443136246e+00 2.862109229652386233e+01 -9.481534319882628381e+01 1.725037651344777956e+01 -9.979925938443136246e+00 1.725037651344777956e+01 -1.179144343470727279e+02
-6.085763185257800245e+01 4.545662891547150508e+01 1.192694252412477773e+01 4.545662891547150508e+01 -5.284458037388635177e+01 -2.688840492882426503e+01 1.192694252412477773e+01 -2.688840492882426503e+01 -8.050895065124555572e+01
-8.339439498540863838e+01 -2.566299929476955910e+01 1.790758587935686208e+00 -2.566299929476955910e+01 -9.121292167313794153e+01 -8.896991065871139526e+00 1.790758587935686208e+00 -8.896991065871139526e+00 -7.815512498373465178e+01
-2.937111919811682625e+01 -4.478529330825694643e+01 -1.289348676411783678e+01 -4.478529330825694643e+01 -3.247582348303436817e+01 5.564008433264967302e+00 -1.289348676411783678e+01 5.564008433264967302e+00 -8.262479209896538634e+01
-3.272309113492806176e+01 2.125788500410247028e+00 1.599589596356921284e+01 2.125788500410247028e+00 -2.710619118157904239e+01 -2.311293342080025237e+00 1.599589596356921284e+01 -2.311293342080025237e+00 5.023481899102298698e+00
-9.210786235077159745e+01 4.380161761062198167e+01 3.891553480630040696e+01 4.380161761062198167e+01 -3.386991226684904177e+01 2.347490816385551682e+01 3.891553480630040696e+01 2.347490816385551682e+01 -1.470949714056902913e+01
-5.302617251509630591e+00 -3.538310058738092323e+01 2.822399790623139637e+01 -3.538310058738092323e+01 -1.005371170843115323e+02 -1.664128516053657592e+01 2.822399790623139637e+01 -1.664128516053657592e+01 -7.797326241482738851e+01
-9.787360134870409922e+01 -1.200997528671476644e+01 -6.846472241358620536e+00 -1.200997528671476644e+01 -7.320587662105938875e+01 1.814576015415208632e+00 -6.846472241358620536e+00 1.814576015415208632e+00 -4.371612344825200580e+01
-7.014945494814676863e+01 1.594619515807329968e+00 -4.316710258675220757e+01 1.594619515807329968e+00 2.427158130991124807e+01 -1.823994373223317567e+01 -4.316710258675220757e+01 -1.823994373223317567e+01 -8.967571478988649147e+00
-8.066695063489582651e+01 4.660860645056891904e+00 1.038735640363781298e+00 4.660860645056891904e+00 -4.236336270673773896e+01 1.468550693517623529e+01 1.038735640363781298e+00 1.468550693517623529e+01 -5.495334278151781149e+01
-2.946971608352443184e+01 4.388893780586235138e+00 4.245386628193516998e+01 4.388893780586235138e+00 -4.015460947929498303e+01 -1.138945517542647679e+01 4.245386628193516998e+01 -1.138945517542647679e+01 -3.713537475471943594e+01
-6.974078381366039991e+01 -1.329713430705730737e+01 -1.825917474205325775e+01 -1.329713430705730737e+01 -5.238512981243003708e+01 -1.772411548822433147e+01 -1.825917474205325775e+01 -1.772411548822433147e+01 -1.303928287950195397e+01
-1.018057579931338239e+02 -2.787769864248997109e+01 2.294296761060927636e+01 -2.787769864248997109e+01 -1.172143763150261861e+02 4.593436198745418864e+01 2.294296761060927636e+01 4.593436198745418864e+01 -7.718495882643554751e+01
-5.122509044788748156e+01 -1.353368302635826481e+01 -2.385532146762283645e+01 -1.353368302635826481e+01 -5.547927912743099199e+01 -3.369396296581187755e+01 -2.385532146762283645e+01 -3.369396296581187755e+01 -3.747737937979518819e+01
-1.471092566156292669e+01 -5.655279312181474616e+00 -1.068983546748165203e+00 -5.655279312181474616e+00 -6.912697617053949273e+01 1.973200298387675033e+01 -1.068983546748165203e+00 1.973200298387675033e+01 -1.788836634181037510e+01
-9.458938156715218781e+01 -1.974872257672494058e+01 6.319392254464046843e+00 -1.974872257672494058e+01 -4.294147019099472118e+01 3.855184060064570151e+00 6.319392254464046843e+00 3.855184060064570151e+00 -8.435883063713251317e+01
9.001507388015754785e+00 -1.110625448790713321e+01 -2.763558123363937469e+00 -1.110625448790713321e+01 -1.450951504656000068e+01 2.067395186703276622e+01 -2.763558123363937469e+00 2.067395186703276622e+01 -8.729783435110887524e+01
-3.076510567126603135e+01 2.823527267164757859e+01 -3.795556908912480054e+01 2.823527267164757859e+01 -1.005085099624446912e+02 -1.326673928625859666e+01 -3.795556908912480054e+01 -1.326673928625859666e+01 -4.299124231785779671e+01
-3.628123364280571650e+01 4.920620120411294818e-01 6.441435594229846906e+00 4.920620120411294818e-01 1.292853859355254098e+00 3.267452516226095671e+00 6.441435594229846906e+00 3.267452516226095671e+00 -3.170238562081804901e+01
-6.775000120090388656e+00 -2.955809757962776274e+01 5.926382085120548204e+00 -2.955809757962776274e+01 -3.650395146764726917e+01 -1.937490261410388825e+01 5.926382085120548204e+00 -1.937490261410388825e+01 -5.456879994229602460e+01
-1.194602714390296683e+02 3.151876192141486399e+01 -6.456339761175034830e+00 3.151876192141486399e+01 -8.498992048839659219e+01 7.185373255718886298e+00 -6.456339761175034830e+00 7.185373255718886298e+00 -1.314032162135939359e+02
-2.469628650677479698e+01 -2.875465640969963044e+00 -1.436526019721326541e+01 -2.875465640969963044e+00 5.706049914793736910e+00 -2.406148027451220628e+01 -1.436526019721326541e+01 -2.406148027451220628e+01 -1.954636092241816314e+01
-1.553008126664773769e+01 -3.071342998941599589e+01 -1.200394114141293933e+01 -3.071342998941599589e+01 -7.938931157672460870e+01 -3.331034011791296479e+01 -1.200394114141293933e+01 -3.331034011791296479e+01 -5.419051410623215759e+01
-5.311888315224748425e+01 6.157054594035374251e+00 -2.377727654045150985e+01 6.157054594035374251e+00 -6.973923217260377783e+01 -1.191435584111659374e+01 -2.377727654045150985e+01 -1.191435584111659374e+01 -5.371979747717510634e+01
-9.870451891597197402e+01 8.548233552768998322e+00 -1.608183732955293266e+00 8.548233552768998322e+00 -4.072358562963326989e+01 -4.404114977983377699e+00 -1.608183732955293266e+00 -4.404114977983377699e+00 1.690339067646816851e+00
-2.242788010412064637e+01 9.893681207168494751e+00 2.224963441614213977e+01 9.893681207168494751e+00 -4.850299205314205153e+01 5.173296333415758852e+01 2.224963441614213977e+01 5.173296333415758852e+01 4.897679931683973642e+00
-4.838298244356309397e+01 6.017429975653687535e+00 1.848150908556539562e+01 6.017429975653687535e+00 -1.661695009764597586e+01 -1.407304483409012974e+01 1.848150908556539562e+01 -1.407304483409012974e+01 -1.170574994899365890e+02
-1.001969921715061105e+02 2.447101741497229455e+01 -1.948133324020925983e+01 2.447101741497229455e+01 -1.368976279087875128e+02 6.763515033079951166e+00 -1.948133324020925983e+01 6.763515033079951166e+00 -8.498299993526801188e+01
-5.310679019323985273e+01 1.268774094839229205e+00 1.411363059797425201e+01 1.268774094839229205e+00 -1.344758902995775429e+02 6.875290513481178145e+00 1.411363059797425201e+01 6.875290513481178145e+00 -5.818324220770575295e+01
-1.398071754938154072e+02 3.018927442732866950e+01 1.051722095963883419e+01 3.018927442732866950e+01 -7.072062731770188293e+01 -3.517331555036776081e+01 1.051722095963883419e+01 -3.517331555036776081e+01 -9.223558182701097508e+01
-5.769485321649887055e+01 2.315012774285869313e+01 2.258630805126028562e+01 2.315012774285869313e+01 -2.739329263871891129e+01 1.514209730107254792e+01 2.258630805126028562e+01 1.514209730107254792e+01 1.024926978486599793e+01
-3.937239970378152432e+00 4.108518600345007599e+00 -6.240133532231107338e+00 4.108518600345007599e+00 -6.004302257437228008e+01 -1.049227553505678578e+01 -6.240133532231107338e+00 -1.049227553505678578e+01 4.928876993285831176e+00
-3.839987494320425299e+01 -1.287712839492520089e+01 -2.254752917881018703e+01 -1.287712839492520089e+01 -1.286140013419253947e+01 -2.595267818694124529e+01 -2.254752917881018703e+01 -2.595267818694124529e+01 -1.832055582915037206e+01
2.628899052849557605e-01 1.103188861067506288e+01 -2.264637638540042275e+01 1.103188861067506288e+01 7.646839939088425631e-01 -1.252712452305875956e+01 -2.264637638540042275e+01 -1.252712452305875956e+01 -9.104676869485654578e+00
-3.487840941767240110e+01 -5.126597052637583474e+00 -4.270581637577541834e+00 -5.126597052637583474e+00 -5.517696824700440317e+01 -1.651924661929509819e+00 -4.270581637577541834e+00 -1.651924661929509819e+00 -2.260637527045336981e+01
-2.694626123669963036e+01 1.674263842507465583e+01 9.943430870068038274e+00 1.674263842507465583e+01 -4.991926403386431588e+01 -2.869727849447204449e+01 9.943430870068038274e+00 -2.869727849447204449e+01 -7.382304581456909887e+01
-1.093106866904519308e+02 -3.132092856763573963e+00 -6.936092454813870489e+00 -3.132092856763573963e+00 -1.278450732177561662e+02 1.588550739768648867e+01 -6.936092454813870489e+00 1.588550739768648867e+01 -3.401994811210949621e+01
-1.795012865884340059e+01 -9.843748598294997265e+00 -3.156815320134299796e+01 -9.843748598294997265e+00 -8.239488034834714369e+01 -3.371310374817602451e+01 -3.156815320134299796e+01 -3.371310374817602451e+01 -8.180419579206193248e+01
-4.075005239654272771e+01 -2.221104819819386123e+01 -9.971248838128047964e+00 -2.221104819819386123e+01 -5.321482066471155292e+01 -2.390294827577168491e+00 -9.971248838128047964e+00 -2.390294827577168491e+00 -1.605110196295466451e+01
-1.023113299075716043e+02 -4.142336282364023248e+01 -1.674828607037535022e+01 -4.142336282364023248e+01 -4.888677020958849084e+01 2.359234792301982964e+01 -1.674828607037535022e+01 2.359234792301982964e+01 -2.044486610989221376e+01
-9.317186463326106605e+01 1.966742731047048309e+01 1.511774768563021176e+00 1.966742731047048309e+01 -3.147583462381777508e+01 9.380208405211037714e+00 1.511774768563021176e+00 9.380208405211037714e+00 -6.017673449820544818e+01
-4.789514494139578460e+01 6.825171211901677282e+01 -1.416375225049674569e+01 6.825171211901677282e+01 -5.089552214799427077e+01 2.434551274836368151e+01 -1.416375225049674569e+01 2.434551274836368151e+01 -5.484497436301615636e+01
-8.991394644263874625e+01 3.225485139327688433e+00 3.234631468122941556e+01 3.225485139327688433e+00 1.682055023988381848e+01 -1.410891598651547341e+01 3.234631468122941556e+01 -1.410891598651547341e+01 -1.100287675180074274e+02
-4.882614775371128957e+01 -1.739117765407488392e+01 1.217366340867823205e+01 -1.739117765407488392e+01 -3.839459232908683362e+01 2.173911990573956032e+01 1.217366340867823205e+01 2.173911990573956032e+01 -7.511115524225012052e+01
-3.432175200129862702e+01 -1.643119992146574049e+01 3.003780287002846450e+01 -1.643119992146574049e+01 -7.427869310972681660e+01 3.024930523040966790e+01 3.003780287002846450e+01 3.024930523040966790e+01 -3.027362867435883675e+00
-6.497277364107186770e+01 2.922237528616418345e+01 7.061794973494434302e+00 2.922237528616418345e+01 -2.003930419592486345e+01 -1.015378236791268485e+01 7.061794973494434302e+00 -1.015378236791268485e+01 -4.744878945150490779e+01
-2.535257491683176045e+00 1.576849843544083285e+01 -1.836572628295488130e+01 1.576849843544083285e+01 -3.004920221460635332e+01 1.020567808882528382e+01 -1.836572628295488130e+01 1.020567808882528382e+01 5.877588858591798981e+01
-6.693770299512360111e+01 2.673085249974626709e+00 -1.328293583391838517e+01 2.673085249974626709e+00 -8.857908259457057909e+01 1.700927716795828459e+01 -1.328293583391838517e+01 1.700927716795828459e+01 -5.652690083201645876e+01
9.213818041657594549e+00 1.648612744399278185e+01 1.323176950184682532e+01 1.648612744399278185e+01 -2.708125809133973405e+01 -4.979067817784873284e+00 1.323176950184682532e+01 -4.979067817784873284e+00 -2.596246443925717884e+01
-5.103593751023950631e+01 1.916339357040046654e+00 3.778893144198990228e+01 1.916339357040046654e+00 -5.602845212057103197e+01 1.171226849125682357e+01 3.778893144198990228e+01 1.171226849125682357e+01 2.105694855073340754e+00
-3.175628296135078088e+01 -1.518384369009882207e+01 -2.894376374351270709e-01 -1.518384369009882207e+01 -5.897683200810458004e+01 1.058461279182427184e+01 -2.894376374351270709e-01 1.058461279182427184e+01 -6.991029806267710001e+01
-3.198238195407996187e+01 2.446691422283169715e+00 -7.630996346975397415e+00 2.446691422283169715e+00 -1.098504927337676236e+02 2.773305404214227821e+01 -7.630996346975397415e+00 2.773305404214227821e+01 -3.815750464127901864e+01
-5.376163519180158090e+01 1.736462104033385856e+01 3.259175770312460685e+01 1.736462104033385856e+01 6.111429801724572286e+00 -2.701918370211166831e+01 3.259175770312460685e+01 -2.701918370211166831e+01 -1.229295703774782922e+01
-1.001771412046706899e+02 3.563674478552888658e+00 -5.514995734585525611e+00 3.563674478552888658e+00 -7.063595993388994998e+01 -3.318548055783749007e+00 -5.514995734585525611e+00 -3.318548055783749007e+00 -1.338465274024208895e+02
-3.282733511920156388e+01 2.652745993085638432e+01 -5.305316964905502530e+00 2.652745993085638432e+01 -9.833462069903741565e+01 -6.524813550058735423e+00 -5.305316964905502530e+00 -6.524813550058735423e+00 -4.405776364338346696e+01