1.524900000000000055e+01 0.000000000000000000e+00 0.000000000000000000e+00 0.000000000000000000e+00 1.524900000000000055e+01 0.000000000000000000e+00 0.000000000000000000e+00 0.000000000000000000e+00 1.524900000000000055e+01
1.554800000000000004e+01 0.000000000000000000e+00 0.000000000000000000e+00 0.000000000000000000e+00 1.554800000000000004e+01 0.000000000000000000e+00 0.000000000000000000e+00 0.000000000000000000e+00 1.554800000000000004e+01
1.549900000000000055e+01 0.000000000000000000e+00 0.000000000000000000e+00 0.000000000000000000e+00 1.549900000000000055e+01 0.000000000000000000e+00 0.000000000000000000e+00 0.000000000000000000e+00 1.549900000000000055e+01
1.630499999999999972e+01 0.000000000000000000e+00 0.000000000000000000e+00 0.000000000000000000e+00 1.630499999999999972e+01 0.000000000000000000e+00 0.000000000000000000e+00 0.000000000000000000e+00 1.630499999999999972e+01
1.573700000000000010e+01 0.000000000000000000e+00 0.000000000000000000e+00 0.000000000000000000e+00 1.573700000000000010e+01 0.000000000000000000e+00 0.000000000000000000e+00 0.000000000000000000e+00 1.573700000000000010e+01
1.680099999999999838e+01 0.000000000000000000e+00 0.000000000000000000e+00 0.000000000000000000e+00 1.680099999999999838e+01 0.000000000000000000e+00 0.000000000000000000e+00 0.000000000000000000e+00 1.680099999999999838e+01
1.532600000000000051e+01 0.000000000000000000e+00 0.000000000000000000e+00 0.000000000000000000e+00 1.532600000000000051e+01 0.000000000000000000e+00 0.000000000000000000e+00 0.000000000000000000e+00 1.532600000000000051e+01
1.628000000000000114e+01 0.000000000000000000e+00 0.000000000000000000e+00 0.000000000000000000e+00 1.628000000000000114e+01 0.000000000000000000e+00 0.000000000000000000e+00 0.000000000000000000e+00 1.628000000000000114e+01
1.554299999999999926e+01 0.000000000000000000e+00 0.000000000000000000e+00 0.000000000000000000e+00 1.554299999999999926e+01 0.000000000000000000e+00 0.000000000000000000e+00 0.000000000000000000e+00 1.554299999999999926e+01
1.595599999999999952e+01 0.000000000000000000e+00 0.000000000000000000e+00 0.000000000000000000e+00 1.595599999999999952e+01 0.000000000000000000e+00 0.000000000000000000e+00 0.000000000000000000e+00 1.595599999999999952e+01
1.556400000000000006e+01 0.000000000000000000e+00 0.000000000000000000e+00 0.000000000000000000e+00 1.556400000000000006e+01 0.000000000000000000e+00 0.000000000000000000e+00 0.000000000000000000e+00 1.556400000000000006e+01
1.596100000000000030e+01 0.000000000000000000e+00 0.000000000000000000e+00 0.000000000000000000e+00 1.596100000000000030e+01 0.000000000000000000e+00 0.000000000000000000e+00 0.000000000000000000e+00 1.596100000000000030e+01
1.539600000000000080e+01 0.000000000000000000e+00 0.000000000000000000e+00 0.000000000000000000e+00 1.539600000000000080e+01 0.000000000000000000e+00 0.000000000000000000e+00 0.000000000000000000e+00 1.539600000000000080e+01
1.577999999999999936e+01 0.000000000000000000e+00 0.000000000000000000e+00 0.000000000000000000e+00 1.577999999999999936e+01 0.000000000000000000e+00 0.000000000000000000e+00 0.000000000000000000e+00 1.577999999999999936e+01
1.558600000000000030e+01 0.000000000000000000e+00 0.000000000000000000e+00 0.000000000000000000e+00 1.558600000000000030e+01 0.000000000000000000e+00 0.000000000000000000e+00 0.000000000000000000e+00 1.558600000000000030e+01
1.587599999999999945e+01 0.000000000000000000e+00 0.000000000000000000e+00 0.000000000000000000e+00 1.587599999999999945e+01 0.000000000000000000e+00 0.000000000000000000e+00 0.000000000000000000e+00 1.587599999999999945e+01
1.613299999999999912e+01 0.000000000000000000e+00 0.000000000000000000e+00 0.000000000000000000e+00 1.613299999999999912e+01 0.000000000000000000e+00 0.000000000000000000e+00 0.000000000000000000e+00 1.613299999999999912e+01
1.570700000000000074e+01 0.000000000000000000e+00 0.000000000000000000e+00 0.000000000000000000e+00 1.570700000000000074e+01 0.000000000000000000e+00 0.000000000000000000e+00 0.000000000000000000e+00 1.570700000000000074e+01
1.551600000000000001e+01 0.000000000000000000e+00 0.000000000000000000e+00 0.000000000000000000e+00 1.551600000000000001e+01 0.000000000000000000e+00 0.000000000000000000e+00 0.000000000000000000e+00 1.551600000000000001e+01
1.581799999999999962e+01 0.000000000000000000e+00 0.000000000000000000e+00 0.000000000000000000e+00 1.581799999999999962e+01 0.000000000000000000e+00 0.000000000000000000e+00 0.000000000000000000e+00 1.581799999999999962e+01
1.693199999999999861e+01 0.000000000000000000e+00 0.000000000000000000e+00 0.000000000000000000e+00 1.693199999999999861e+01 0.000000000000000000e+00 0.000000000000000000e+00 0.000000000000000000e+00 1.693199999999999861e+01
1.605900000000000105e+01 0.000000000000000000e+00 0.000000000000000000e+00 0.000000000000000000e+00 1.605900000000000105e+01 0.000000000000000000e+00 0.000000000000000000e+00 0.000000000000000000e+00 1.605900000000000105e+01
1.543299999999999983e+01 0.000000000000000000e+00 0.000000000000000000e+00 0.000000000000000000e+00 1.543299999999999983e+01 0.000000000000000000e+00 0.000000000000000000e+00 0.000000000000000000e+00 1.543299999999999983e+01
1.597899999999999920e+01 0.000000000000000000e+00 0.000000000000000000e+00 0.000000000000000000e+00 1.597899999999999920e+01 0.000000000000000000e+00 0.000000000000000000e+00 0.000000000000000000e+00 1.597899999999999920e+01
1.582699999999999996e+01 0.000000000000000000e+00 0.000000000000000000e+00 0.000000000000000000e+00 1.582699999999999996e+01 0.000000000000000000e+00 0.000000000000000000e+00 0.000000000000000000e+00 1.582699999999999996e+01
1.586299999999999955e+01 0.000000000000000000e+00 0.000000000000000000e+00 0.000000000000000000e+00 1.586299999999999955e+01 0.000000000000000000e+00 0.000000000000000000e+00 0.000000000000000000e+00 1.586299999999999955e+01
1.555499999999999972e+01 0.000000000000000000e+00 0.000000000000000000e+00 0.000000000000000000e+00 1.555499999999999972e+01 0.000000000000000000e+00 0.000000000000000000e+00 0.000000000000000000e+00 1.555499999999999972e+01
1.540300000000000047e+01 0.000000000000000000e+00 0.000000000000000000e+00 0.000000000000000000e+00 1.540300000000000047e+01 0.000000000000000000e+00 0.000000000000000000e+00 0.000000000000000000e+00 1.540300000000000047e+01
1.550699999999999967e+01 0.000000000000000000e+00 0.000000000000000000e+00 0.000000000000000000e+00 1.550699999999999967e+01 0.000000000000000000e+00 0.000000000000000000e+00 0.000000000000000000e+00 1.550699999999999967e+01
1.548499999999999943e+01 0.000000000000000000e+00 0.000000000000000000e+00 0.000000000000000000e+00 1.548499999999999943e+01 0.000000000000000000e+00 0.000000000000000000e+00 0.000000000000000000e+00 1.548499999999999943e+01
1.558500000000000085e+01 0.000000000000000000e+00 0.000000000000000000e+00 0.000000000000000000e+00 1.558500000000000085e+01 0.000000000000000000e+00 0.000000000000000000e+00 0.000000000000000000e+00 1.558500000000000085e+01
1.612800000000000011e+01 0.000000000000000000e+00 0.000000000000000000e+00 0.000000000000000000e+00 1.612800000000000011e+01 0.000000000000000000e+00 0.000000000000000000e+00 0.000000000000000000e+00 1.612800000000000011e+01
1.573399999999999999e+01 0.000000000000000000e+00 0.000000000000000000e+00 0.000000000000000000e+00 1.573399999999999999e+01 0.000000000000000000e+00 0.000000000000000000e+00 0.000000000000000000e+00 1.573399999999999999e+01
1.686499999999999844e+01 0.000000000000000000e+00 0.000000000000000000e+00 0.000000000000000000e+00 1.686499999999999844e+01 0.000000000000000000e+00 0.000000000000000000e+00 0.000000000000000000e+00 1.686499999999999844e+01
1.558999999999999986e+01 0.000000000000000000e+00 0.000000000000000000e+00 0.000000000000000000e+00 1.558999999999999986e+01 0.000000000000000000e+00 0.000000000000000000e+00 0.000000000000000000e+00 1.558999999999999986e+01
1.531700000000000017e+01 0.000000000000000000e+00 0.000000000000000000e+00 0.000000000000000000e+00 1.531700000000000017e+01 0.000000000000000000e+00 0.000000000000000000e+00 0.000000000000000000e+00 1.531700000000000017e+01
1.558500000000000085e+01 0.000000000000000000e+00 0.000000000000000000e+00 0.000000000000000000e+00 1.558500000000000085e+01 0.000000000000000000e+00 0.000000000000000000e+00 0.000000000000000000e+00 1.558500000000000085e+01
1.623100000000000165e+01 0.000000000000000000e+00 0.000000000000000000e+00 0.000000000000000000e+00 1.623100000000000165e+01 0.000000000000000000e+00 0.000000000000000000e+00 0.000000000000000000e+00 1.623100000000000165e+01
1.664199999999999946e+01 0.000000000000000000e+00 0.000000000000000000e+00 0.000000000000000000e+00 1.664199999999999946e+01 0.000000000000000000e+00 0.000000000000000000e+00 0.000000000000000000e+00 1.664199999999999946e+01
1.568200000000000038e+01 0.000000000000000000e+00 0.000000000000000000e+00 0.000000000000000000e+00 1.568200000000000038e+01 0.000000000000000000e+00 0.000000000000000000e+00 0.000000000000000000e+00 1.568200000000000038e+01
1.582499999999999929e+01 0.000000000000000000e+00 0.000000000000000000e+00 0.000000000000000000e+00 1.582499999999999929e+01 0.000000000000000000e+00 0.000000000000000000e+00 0.000000000000000000e+00 1.582499999999999929e+01
1.681299999999999883e+01 0.000000000000000000e+00 0.000000000000000000e+00 0.000000000000000000e+00 1.681299999999999883e+01 0.000000000000000000e+00 0.000000000000000000e+00 0.000000000000000000e+00 1.681299999999999883e+01
1.598700000000000010e+01 0.000000000000000000e+00 0.000000000000000000e+00 0.000000000000000000e+00 1.598700000000000010e+01 0.000000000000000000e+00 0.000000000000000000e+00 0.000000000000000000e+00 1.598700000000000010e+01
1.587299999999999933e+01 0.000000000000000000e+00 0.000000000000000000e+00 0.000000000000000000e+00 1.587299999999999933e+01 0.000000000000000000e+00 0.000000000000000000e+00 0.000000000000000000e+00 1.587299999999999933e+01
1.570800000000000018e+01 0.000000000000000000e+00 0.000000000000000000e+00 0.000000000000000000e+00 1.570800000000000018e+01 0.000000000000000000e+00 0.000000000000000000e+00 0.000000000000000000e+00 1.570800000000000018e+01
1.675400000000000134e+01 0.000000000000000000e+00 0.000000000000000000e+00 0.000000000000000000e+00 1.675400000000000134e+01 0.000000000000000000e+00 0.000000000000000000e+00 0.000000000000000000e+00 1.675400000000000134e+01
1.607600000000000051e+01 0.000000000000000000e+00 0.000000000000000000e+00 0.000000000000000000e+00 1.607600000000000051e+01 0.000000000000000000e+00 0.000000000000000000e+00 0.000000000000000000e+00 1.607600000000000051e+01
1.614999999999999858e+01 0.000000000000000000e+00 0.000000000000000000e+00 0.000000000000000000e+00 1.614999999999999858e+01 0.000000000000000000e+00 0.000000000000000000e+00 0.000000000000000000e+00 1.614999999999999858e+01
1.522899999999999920e+01 0.000000000000000000e+00 0.000000000000000000e+00 0.000000000000000000e+00 1.522899999999999920e+01 0.000000000000000000e+00 0.000000000000000000e+00 0.000000000000000000e+00 1.522899999999999920e+01
1.657700000000000173e+01 0.000000000000000000e+00 0.000000000000000000e+00 0.000000000000000000e+00 1.657700000000000173e+01 0.000000000000000000e+00 0.000000000000000000e+00 0.000000000000000000e+00 1.657700000000000173e+01
1.548099999999999987e+01 0.000000000000000000e+00 0.000000000000000000e+00 0.000000000000000000e+00 1.548099999999999987e+01 0.000000000000000000e+00 0.000000000000000000e+00 0.000000000000000000e+00 1.548099999999999987e+01
1.580599999999999916e+01 0.000000000000000000e+00 0.000000000000000000e+00 0.000000000000000000e+00 1.580599999999999916e+01 0.000000000000000000e+00 0.000000000000000000e+00 0.000000000000000000e+00 1.580599999999999916e+01
1.587800000000000011e+01 0.000000000000000000e+00 0.000000000000000000e+00 0.000000000000000000e+00 1.587800000000000011e+01 0.000000000000000000e+00 0.000000000000000000e+00 0.000000000000000000e+00 1.587800000000000011e+01
1.579100000000000037e+01 0.000000000000000000e+00 0.000000000000000000e+00 0.000000000000000000e+00 1.579100000000000037e+01 0.000000000000000000e+00 0.000000000000000000e+00 0.000000000000000000e+00 1.579100000000000037e+01
1.565199999999999925e+01 0.000000000000000000e+00 0.000000000000000000e+00 0.000000000000000000e+00 1.565199999999999925e+01 0.000000000000000000e+00 0.000000000000000000e+00 0.000000000000000000e+00 1.565199999999999925e+01
1.654700000000000060e+01 0.000000000000000000e+00 0.000000000000000000e+00 0.000000000000000000e+00 1.654700000000000060e+01 0.000000000000000000e+00 0.000000000000000000e+00 0.000000000000000000e+00 1.654700000000000060e+01
1.556499999999999950e+01 0.000000000000000000e+00 0.000000000000000000e+00 0.000000000000000000e+00 1.556499999999999950e+01 0.000000000000000000e+00 0.000000000000000000e+00 0.000000000000000000e+00 1.556499999999999950e+01
1.589700000000000024e+01 0.000000000000000000e+00 0.000000000000000000e+00 0.000000000000000000e+00 1.589700000000000024e+01 0.000000000000000000e+00 0.000000000000000000e+00 0.000000000000000000e+00 1.589700000000000024e+01
1.533699999999999974e+01 0.000000000000000000e+00 0.000000000000000000e+00 0.000000000000000000e+00 1.533699999999999974e+01 0.000000000000000000e+00 0.000000000000000000e+00 0.000000000000000000e+00 1.533699999999999974e+01
1.598900000000000077e+01 0.000000000000000000e+00 0.000000000000000000e+00 0.000000000000000000e+00 1.598900000000000077e+01 0.000000000000000000e+00 0.000000000000000000e+00 0.000000000000000000e+00 1.598900000000000077e+01
1.653200000000000003e+01 0.000000000000000000e+00 0.000000000000000000e+00 0.000000000000000000e+00 1.653200000000000003e+01 0.000000000000000000e+00 0.000000000000000000e+00 0.000000000000000000e+00 1.653200000000000003e+01
1.628300000000000125e+01 0.000000000000000000e+00 0.000000000000000000e+00 0.000000000000000000e+00 1.628300000000000125e+01 0.000000000000000000e+00 0.000000000000000000e+00 0.000000000000000000e+00 1.628300000000000125e+01
1.567800000000000082e+01 0.000000000000000000e+00 0.000000000000000000e+00 0.000000000000000000e+00 1.567800000000000082e+01 0.000000000000000000e+00 0.000000000000000000e+00 0.000000000000000000e+00 1.567800000000000082e+01
1.695599999999999952e+01 0.000000000000000000e+00 0.000000000000000000e+00 0.000000000000000000e+00 1.695599999999999952e+01 0.000000000000000000e+00 0.000000000000000000e+00 0.000000000000000000e+00 1.695599999999999952e+01
1.552699999999999925e+01 0.000000000000000000e+00 0.000000000000000000e+00 0.000000000000000000e+00 1.552699999999999925e+01 0.000000000000000000e+00 0.000000000000000000e+00 0.000000000000000000e+00 1.552699999999999925e+01
1.588499999999999979e+01 0.000000000000000000e+00 0.000000000000000000e+00 0.000000000000000000e+00 1.588499999999999979e+01 0.000000000000000000e+00 0.000000000000000000e+00 0.000000000000000000e+00 1.588499999999999979e+01
1.684700000000000131e+01 0.000000000000000000e+00 0.000000000000000000e+00 0.000000000000000000e+00 1.684700000000000131e+01 0.000000000000000000e+00 0.000000000000000000e+00 0.000000000000000000e+00 1.684700000000000131e+01
1.601099999999999923e+01 0.000000000000000000e+00 0.000000000000000000e+00 0.000000000000000000e+00 1.601099999999999923e+01 0.000000000000000000e+00 0.000000000000000000e+00 0.000000000000000000e+00 1.601099999999999923e+01
1.682000000000000028e+01 0.000000000000000000e+00 0.000000000000000000e+00 0.000000000000000000e+00 1.682000000000000028e+01 0.000000000000000000e+00 0.000000000000000000e+00 0.000000000000000000e+00 1.682000000000000028e+01
1.548499999999999943e+01 0.000000000000000000e+00 0.000000000000000000e+00 0.000000000000000000e+00 1.548499999999999943e+01 0.000000000000000000e+00 0.000000000000000000e+00 0.000000000000000000e+00 1.548499999999999943e+01
1.671000000000000085e+01 0.000000000000000000e+00 0.000000000000000000e+00 0.000000000000000000e+00 1.671000000000000085e+01 0.000000000000000000e+00 0.000000000000000000e+00 0.000000000000000000e+00 1.671000000000000085e+01
1.546199999999999974e+01 0.000000000000000000e+00 0.000000000000000000e+00 0.000000000000000000e+00 1.546199999999999974e+01 0.000000000000000000e+00 0.000000000000000000e+00 0.000000000000000000e+00 1.546199999999999974e+01
1.637500000000000000e+01 0.000000000000000000e+00 0.000000000000000000e+00 0.000000000000000000e+00 1.637500000000000000e+01 0.000000000000000000e+00 0.000000000000000000e+00 0.000000000000000000e+00 1.637500000000000000e+01
1.581400000000000006e+01 0.000000000000000000e+00 0.000000000000000000e+00 0.000000000000000000e+00 1.581400000000000006e+01 0.000000000000000000e+00 0.000000000000000000e+00 0.000000000000000000e+00 1.581400000000000006e+01
1.657199999999999918e+01 0.000000000000000000e+00 0.000000000000000000e+00 0.000000000000000000e+00 1.657199999999999918e+01 0.000000000000000000e+00 0.000000000000000000e+00 0.000000000000000000e+00 1.657199999999999918e+01
1.574099999999999966e+01 0.000000000000000000e+00 0.000000000000000000e+00 0.000000000000000000e+00 1.574099999999999966e+01 0.000000000000000000e+00 0.000000000000000000e+00 0.000000000000000000e+00 1.574099999999999966e+01
1.553400000000000070e+01 0.000000000000000000e+00 0.000000000000000000e+00 0.000000000000000000e+00 1.553400000000000070e+01 0.000000000000000000e+00 0.000000000000000000e+00 0.000000000000000000e+00 1.553400000000000070e+01
1.624800000000000111e+01 0.000000000000000000e+00 0.000000000000000000e+00 0.000000000000000000e+00 1.624800000000000111e+01 0.000000000000000000e+00 0.000000000000000000e+00 0.000000000000000000e+00 1.624800000000000111e+01
1.646499999999999986e+01 0.000000000000000000e+00 0.000000000000000000e+00 0.000000000000000000e+00 1.646499999999999986e+01 0.000000000000000000e+00 0.000000000000000000e+00 0.000000000000000000e+00 1.646499999999999986e+01
1.557699999999999996e+01 0.000000000000000000e+00 0.000000000000000000e+00 0.000000000000000000e+00 1.557699999999999996e+01 0.000000000000000000e+00 0.000000000000000000e+00 0.000000000000000000e+00 1.557699999999999996e+01
1.564199999999999946e+01 0.000000000000000000e+00 0.000000000000000000e+00 0.000000000000000000e+00 1.564199999999999946e+01 0.000000000000000000e+00 0.000000000000000000e+00 0.000000000000000000e+00 1.564199999999999946e+01
1.635099999999999909e+01 0.000000000000000000e+00 0.000000000000000000e+00 0.000000000000000000e+00 1.635099999999999909e+01 0.000000000000000000e+00 0.000000000000000000e+00 0.000000000000000000e+00 1.635099999999999909e+01
1.605900000000000105e+01 0.000000000000000000e+00 0.000000000000000000e+00 0.000000000000000000e+00 1.605900000000000105e+01 0.000000000000000000e+00 0.000000000000000000e+00 0.000000000000000000e+00 1.605900000000000105e+01
1.744300000000000139e+01 0.000000000000000000e+00 0.000000000000000000e+00 0.000000000000000000e+00 1.744300000000000139e+01 0.000000000000000000e+00 0.000000000000000000e+00 0.000000000000000000e+00 1.744300000000000139e+01
1.574399999999999977e+01 0.000000000000000000e+00 0.000000000000000000e+00 0.000000000000000000e+00 1.574399999999999977e+01 0.000000000000000000e+00 0.000000000000000000e+00 0.000000000000000000e+00 1.574399999999999977e+01
1.569200000000000017e+01 0.000000000000000000e+00 0.000000000000000000e+00 0.000000000000000000e+00 1.569200000000000017e+01 0.000000000000000000e+00 0.000000000000000000e+00 0.000000000000000000e+00 1.569200000000000017e+01
1.589100000000000001e+01 0.000000000000000000e+00 0.000000000000000000e+00 0.000000000000000000e+00 1.589100000000000001e+01 0.000000000000000000e+00 0.000000000000000000e+00 0.000000000000000000e+00 1.589100000000000001e+01
1.563100000000000023e+01 0.000000000000000000e+00 0.000000000000000000e+00 0.000000000000000000e+00 1.563100000000000023e+01 0.000000000000000000e+00 0.000000000000000000e+00 0.000000000000000000e+00 1.563100000000000023e+01
1.518500000000000050e+01 0.000000000000000000e+00 0.000000000000000000e+00 0.000000000000000000e+00 1.518500000000000050e+01 0.000000000000000000e+00 0.000000000000000000e+00 0.000000000000000000e+00 1.518500000000000050e+01
1.542900000000000027e+01 0.000000000000000000e+00 0.000000000000000000e+00 0.000000000000000000e+00 1.542900000000000027e+01 0.000000000000000000e+00 0.000000000000000000e+00 0.000000000000000000e+00 1.542900000000000027e+01
1.542800000000000082e+01 0.000000000000000000e+00 0.000000000000000000e+00 0.000000000000000000e+00 1.542800000000000082e+01 0.000000000000000000e+00 0.000000000000000000e+00 0.000000000000000000e+00 1.542800000000000082e+01
1.688599999999999923e+01 0.000000000000000000e+00 0.000000000000000000e+00 0.000000000000000000e+00 1.688599999999999923e+01 0.000000000000000000e+00 0.000000000000000000e+00 0.000000000000000000e+00 1.688599999999999923e+01
1.588000000000000078e+01 0.000000000000000000e+00 0.000000000000000000e+00 0.000000000000000000e+00 1.588000000000000078e+01 0.000000000000000000e+00 0.000000000000000000e+00 0.000000000000000000e+00 1.588000000000000078e+01
1.618100000000000094e+01 0.000000000000000000e+00 0.000000000000000000e+00 0.000000000000000000e+00 1.618100000000000094e+01 0.000000000000000000e+00 0.000000000000000000e+00 0.000000000000000000e+00 1.618100000000000094e+01
1.537400000000000055e+01 0.000000000000000000e+00 0.000000000000000000e+00 0.000000000000000000e+00 1.537400000000000055e+01 0.000000000000000000e+00 0.000000000000000000e+00 0.000000000000000000e+00 1.537400000000000055e+01
1.717399999999999949e+01 0.000000000000000000e+00 0.000000000000000000e+00 0.000000000000000000e+00 1.717399999999999949e+01 0.000000000000000000e+00 0.000000000000000000e+00 0.000000000000000000e+00 1.717399999999999949e+01
1.611499999999999844e+01 0.000000000000000000e+00 0.000000000000000000e+00 0.000000000000000000e+00 1.611499999999999844e+01 0.000000000000000000e+00 0.000000000000000000e+00 0.000000000000000000e+00 1.611499999999999844e+01
1.585999999999999943e+01 0.000000000000000000e+00 0.000000000000000000e+00 0.000000000000000000e+00 1.585999999999999943e+01 0.000000000000000000e+00 0.000000000000000000e+00 0.000000000000000000e+00 1.585999999999999943e+01
1.673699999999999832e+01 0.000000000000000000e+00 0.000000000000000000e+00 0.000000000000000000e+00 1.673699999999999832e+01 0.000000000000000000e+00 0.000000000000000000e+00 0.000000000000000000e+00 1.673699999999999832e+01
1.644699999999999918e+01 0.000000000000000000e+00 0.000000000000000000e+00 0.000000000000000000e+00 1.644699999999999918e+01 0.000000000000000000e+00 0.000000000000000000e+00 0.000000000000000000e+00 1.644699999999999918e+01
1.725199999999999889e+01 0.000000000000000000e+00 0.000000000000000000e+00 0.000000000000000000e+00 1.725199999999999889e+01 0.000000000000000000e+00 0.000000000000000000e+00 0.000000000000000000e+00 1.725199999999999889e+01
1.582900000000000063e+01 0.000000000000000000e+00 0.000000000000000000e+00 0.000000000000000000e+00 1.582900000000000063e+01 0.000000000000000000e+00 0.000000000000000000e+00 0.000000000000000000e+00 1.582900000000000063e+01
1.579700000000000060e+01 0.000000000000000000e+00 0.000000000000000000e+00 0.000000000000000000e+00 1.579700000000000060e+01 0.000000000000000000e+00 0.000000000000000000e+00 0.000000000000000000e+00 1.579700000000000060e+01
1.620100000000000051e+01 0.000000000000000000e+00 0.000000000000000000e+00 0.000000000000000000e+00 1.620100000000000051e+01 0.000000000000000000e+00 0.000000000000000000e+00 0.000000000000000000e+00 1.620100000000000051e+01
1.553999999999999915e+01 0.000000000000000000e+00 0.000000000000000000e+00 0.000000000000000000e+00 1.553999999999999915e+01 0.000000000000000000e+00 0.000000000000000000e+00 0.000000000000000000e+00 1.553999999999999915e+01
1.571299999999999919e+01 0.000000000000000000e+00 0.000000000000000000e+00 0.000000000000000000e+00 1.571299999999999919e+01 0.000000000000000000e+00 0.000000000000000000e+00 0.000000000000000000e+00 1.571299999999999919e+01
1.586999999999999922e+01 0.000000000000000000e+00 0.000000000000000000e+00 0.000000000000000000e+00 1.586999999999999922e+01 0.000000000000000000e+00 0.000000000000000000e+00 0.000000000000000000e+00 1.586999999999999922e+01
1.644099999999999895e+01 0.000000000000000000e+00 0.000000000000000000e+00 0.000000000000000000e+00 1.644099999999999895e+01 0.000000000000000000e+00 0.000000000000000000e+00 0.000000000000000000e+00 1.644099999999999895e+01
1.696999999999999886e+01 0.000000000000000000e+00 0.000000000000000000e+00 0.000000000000000000e+00 1.696999999999999886e+01 0.000000000000000000e+00 0.000000000000000000e+00 0.000000000000000000e+00 1.696999999999999886e+01
1.589000000000000057e+01 0.000000000000000000e+00 0.000000000000000000e+00 0.000000000000000000e+00 1.589000000000000057e+01 0.000000000000000000e+00 0.000000000000000000e+00 0.000000000000000000e+00 1.589000000000000057e+01
1.545599999999999952e+01 0.000000000000000000e+00 0.000000000000000000e+00 0.000000000000000000e+00 1.545599999999999952e+01 0.000000000000000000e+00 0.000000000000000000e+00 0.000000000000000000e+00 1.545599999999999952e+01
1.581000000000000050e+01 0.000000000000000000e+00 0.000000000000000000e+00 0.000000000000000000e+00 1.581000000000000050e+01 0.000000000000000000e+00 0.000000000000000000e+00 0.000000000000000000e+00 1.581000000000000050e+01
1.539199999999999946e+01 0.000000000000000000e+00 0.000000000000000000e+00 0.000000000000000000e+00 1.539199999999999946e+01 0.000000000000000000e+00 0.000000000000000000e+00 0.000000000000000000e+00 1.539199999999999946e+01
1.796099999999999852e+01 0.000000000000000000e+00 0.000000000000000000e+00 0.000000000000000000e+00 1.796099999999999852e+01 0.000000000000000000e+00 0.000000000000000000e+00 0.000000000000000000e+00 1.796099999999999852e+01
1.755699999999999861e+01 0.000000000000000000e+00 0.000000000000000000e+00 0.000000000000000000e+00 1.755699999999999861e+01 0.000000000000000000e+00 0.000000000000000000e+00 0.000000000000000000e+00 1.755699999999999861e+01
1.544599999999999973e+01 0.000000000000000000e+00 0.000000000000000000e+00 0.000000000000000000e+00 1.544599999999999973e+01 0.000000000000000000e+00 0.000000000000000000e+00 0.000000000000000000e+00 1.544599999999999973e+01
1.561899999999999977e+01 0.000000000000000000e+00 0.000000000000000000e+00 0.000000000000000000e+00 1.561899999999999977e+01 0.000000000000000000e+00 0.000000000000000000e+00 0.000000000000000000e+00 1.561899999999999977e+01
1.572499999999999964e+01 0.000000000000000000e+00 0.000000000000000000e+00 0.000000000000000000e+00 1.572499999999999964e+01 0.000000000000000000e+00 0.000000000000000000e+00 0.000000000000000000e+00 1.572499999999999964e+01
1.592099999999999937e+01 0.000000000000000000e+00 0.000000000000000000e+00 0.000000000000000000e+00 1.592099999999999937e+01 0.000000000000000000e+00 0.000000000000000000e+00 0.000000000000000000e+00 1.592099999999999937e+01
1.651000000000000156e+01 0.000000000000000000e+00 0.000000000000000000e+00 0.000000000000000000e+00 1.651000000000000156e+01 0.000000000000000000e+00 0.000000000000000000e+00 0.000000000000000000e+00 1.651000000000000156e+01
1.572600000000000087e+01 0.000000000000000000e+00 0.000000000000000000e+00 0.000000000000000000e+00 1.572600000000000087e+01 0.000000000000000000e+00 0.000000000000000000e+00 0.000000000000000000e+00 1.572600000000000087e+01
1.604899999999999949e+01 0.000000000000000000e+00 0.000000000000000000e+00 0.000000000000000000e+00 1.604899999999999949e+01 0.000000000000000000e+00 0.000000000000000000e+00 0.000000000000000000e+00 1.604899999999999949e+01
1.526999999999999957e+01 0.000000000000000000e+00 0.000000000000000000e+00 0.000000000000000000e+00 1.526999999999999957e+01 0.000000000000000000e+00 0.000000000000000000e+00 0.000000000000000000e+00 1.526999999999999957e+01
1.546100000000000030e+01 0.000000000000000000e+00 0.000000000000000000e+00 0.000000000000000000e+00 1.546100000000000030e+01 0.000000000000000000e+00 0.000000000000000000e+00 0.000000000000000000e+00 1.546100000000000030e+01
1.637900000000000134e+01 0.000000000000000000e+00 0.000000000000000000e+00 0.000000000000000000e+00 1.637900000000000134e+01 0.000000000000000000e+00 0.000000000000000000e+00 0.000000000000000000e+00 1.637900000000000134e+01
1.563799999999999990e+01 0.000000000000000000e+00 0.000000000000000000e+00 0.000000000000000000e+00 1.563799999999999990e+01 0.000000000000000000e+00 0.000000000000000000e+00 0.000000000000000000e+00 1.563799999999999990e+01
1.683899999999999864e+01 0.000000000000000000e+00 0.000000000000000000e+00 0.000000000000000000e+00 1.683899999999999864e+01 0.000000000000000000e+00 0.000000000000000000e+00 0.000000000000000000e+00 1.683899999999999864e+01
1.546400000000000041e+01 0.000000000000000000e+00 0.000000000000000000e+00 0.000000000000000000e+00 1.546400000000000041e+01 0.000000000000000000e+00 0.000000000000000000e+00 0.000000000000000000e+00 1.546400000000000041e+01
1.578800000000000026e+01 0.000000000000000000e+00 0.000000000000000000e+00 0.000000000000000000e+00 1.578800000000000026e+01 0.000000000000000000e+00 0.000000000000000000e+00 0.000000000000000000e+00 1.578800000000000026e+01
1.541699999999999982e+01 0.000000000000000000e+00 0.000000000000000000e+00 0.000000000000000000e+00 1.541699999999999982e+01 0.000000000000000000e+00 0.000000000000000000e+00 0.000000000000000000e+00 1.541699999999999982e+01
1.565799999999999947e+01 0.000000000000000000e+00 0.000000000000000000e+00 0.000000000000000000e+00 1.565799999999999947e+01 0.000000000000000000e+00 0.000000000000000000e+00 0.000000000000000000e+00 1.565799999999999947e+01
1.642800000000000082e+01 0.000000000000000000e+00 0.000000000000000000e+00 0.000000000000000000e+00 1.642800000000000082e+01 0.000000000000000000e+00 0.000000000000000000e+00 0.000000000000000000e+00 1.642800000000000082e+01
1.587100000000000044e+01 0.000000000000000000e+00 0.000000000000000000e+00 0.000000000000000000e+00 1.587100000000000044e+01 0.000000000000000000e+00 0.000000000000000000e+00 0.000000000000000000e+00 1.587100000000000044e+01