7.253015000000000434e+00 9.263125000000000497e+00 9.134594999999999132e+00 1.198101499999999930e+01 1.326414999999999900e+00 2.215205000000000091e+00 5.833965000000000067e+00 7.534385000000000332e+00 3.566625000000000156e+00 1.329225000000000101e+00 1.555665000000000076e+00 1.441481500000000082e+01 6.941345000000000098e+00 9.218825000000000713e+00 1.524381499999999967e+01 1.074001499999999965e+01 1.176401500000000055e+01 1.213891500000000079e+01 2.115345000000000031e+00 7.221454999999999735e+00 8.834904999999999120e+00 6.953384999999999927e+00 1.156091499999999961e+01 7.953495000000000203e+00 1.288581499999999913e+01 3.498099999999999821e-02 3.258799999999999891e-02 2.865334999999999965e+00 1.320071500000000064e+01 1.119631500000000024e+01 3.076674999999999827e+00 1.197551499999999969e+01 5.124595000000000233e+00 1.308271500000000032e+01 1.368041499999999999e+01 3.897464999999999957e+00 6.522025000000000183e+00 1.389061500000000038e+01 3.717344999999999899e+00 6.633194999999999730e+00 1.236981499999999912e+01 1.229021499999999989e+01 1.489301500000000011e+01 9.356194999999999595e+00 1.098561499999999924e+01 9.586904999999999788e+00 5.268284999999999663e+00 2.617544999999999789e+00 8.367174999999999585e+00 1.033831499999999970e+01 1.915194999999999981e+00 2.188464999999999883e+00 3.463424999999999976e+00 1.035781500000000044e+01 5.767624999999999780e+00 1.676765000000000061e+00 7.292505000000000237e+00 5.194975000000000342e+00 8.473475000000000534e+00 5.916224999999999845e+00 9.303155000000000285e+00 4.908915000000000362e+00 4.058300000000000241e-01 1.033481500000000075e+01 5.877879999999999772e-01 4.198134999999999728e+00 1.294941500000000012e+01 1.230611500000000014e+01 7.507414999999999949e+00 1.079771500000000017e+01 3.708474999999999966e+00 1.379681500000000050e+01 1.392281499999999994e+01 5.555015000000000036e+00 1.666614999999999958e+00 8.582805000000000462e+00 5.354999999999999760e-01 7.495095000000000063e+00 3.457675000000000054e+00 1.054241500000000009e+01 1.169891499999999951e+01 9.278154999999999930e+00 9.812715000000000742e+00 1.116201500000000024e+01 5.495664999999999800e+00 1.024051500000000026e+01 1.310111500000000007e+01 1.454331499999999977e+01 1.121781499999999987e+01 9.180044999999999789e+00 1.848205000000000098e+00 7.203945000000000043e+00 1.313181499999999957e+01 4.496554999999999858e+00 2.894495000000000040e+00 1.100901499999999977e+01 9.030124999999999957e+00 3.856335000000000068e+00 9.756014999999999660e+00 5.435304999999999609e+00 4.221465000000000245e+00 3.362305000000000099e+00 1.520871499999999976e+01 1.350441499999999984e+01 2.279415000000000191e+00 3.890264999999999862e+00 6.285395000000000287e+00 1.460531499999999916e+01 5.131294999999999717e+00 2.106494999999999784e+00 1.351801500000000011e+01 1.078084999999999960e+00 1.097941499999999948e+01 5.794344999999999857e+00 1.095621500000000026e+01 3.939344999999999875e+00 4.824164999999999814e+00 2.303694999999999826e+00 6.945834999999999759e+00 6.371344999999999814e+00 9.444449999999999790e-01 1.221711499999999972e+01 8.125825000000000742e+00 1.359861500000000056e+01 5.319824999999999804e+00 1.426041500000000006e+01 3.188775000000000137e+00 8.847355000000000302e+00 9.774015000000000342e+00 3.463795000000000179e+00 3.404584999999999972e+00 1.481821500000000036e+01 9.312414999999999665e+00 1.475031500000000051e+01 9.605225000000000790e+00 1.427041499999999985e+01 1.349501500000000043e+01 1.409201499999999996e+01 9.102149999999999963e-01 5.565274999999999750e+00 2.823024999999999896e+00 1.140021499999999932e+01 5.878054999999999808e+00 1.283671499999999988e+01 6.646824999999999761e+00 3.099334999999999951e+00 9.241004999999999470e+00 8.980864999999999654e+00 6.578705000000000247e+00 1.033561500000000066e+01 1.207371499999999997e+01 1.724204999999999988e+00 1.407221499999999992e+01 7.150649999999999507e-01 7.310774999999999579e+00 4.555344999999999978e+00 1.215931499999999943e+01 3.985564999999999802e+00 2.794684999999999864e+00 4.534035000000000259e+00 1.283781500000000086e+01 2.896904999999999841e+00 1.236795000000000089e+00 1.131521500000000024e+01 2.019365000000000077e+00 1.344451500000000088e+01 5.157424999999999926e+00 9.293575000000000585e+00 8.251349999999999518e-01 5.166789999999999994e-01 2.968945000000000167e+00 2.891824999999999868e+00 2.026155000000000150e+00 2.951865000000000183e+00 6.797954999999999970e+00 3.510019999999999807e-01 5.697194999999999787e+00 3.427684999999999871e+00 1.214145000000000030e+00 7.558905000000000207e+00 3.004499999999999879e-02 5.319810000000000372e-01 1.050351500000000016e+01 1.153909999999999936e-01 1.131041500000000077e+01 1.490661500000000039e+01 1.038911500000000032e+01 9.321714999999999307e+00 1.133075000000000054e+00 9.933614999999999640e+00 7.796585000000000321e+00 1.209691499999999920e+01 1.091051500000000019e+01 1.355691500000000005e+01 5.235604999999999620e+00 1.297341499999999925e+01 7.008474999999999788e+00 6.109605000000000175e+00 5.954284999999999606e+00 4.408034999999999926e+00 5.937344999999999651e+00 1.004581499999999927e+01 1.135771500000000067e+01 5.321835000000000093e+00 5.022759999999999447e-01 9.503114999999999313e+00 3.730185000000000084e+00 1.356151499999999999e+01 7.521584999999999965e+00 9.897415000000000518e+00 8.136514999999999276e+00 6.338635000000000019e+00 4.312195000000000000e+00 1.826074999999999893e+00 1.470741499999999924e+01 8.614884999999999238e+00 5.326464999999999783e+00 8.014025000000000176e+00 8.406425000000000480e+00 1.503481500000000004e+01 3.108014999999999972e+00 6.300394999999999968e+00 8.231935000000000002e+00 1.272141500000000036e+01 1.443451499999999932e+01 2.279875000000000096e+00 2.896135000000000126e+00 5.884174999999999933e+00 2.723229999999999817e-01 9.117845000000000866e+00 1.354171499999999995e+01 5.388734999999999609e+00 1.338091499999999989e+01 1.030601500000000037e+01 1.316431500000000021e+01 4.606214999999999726e+00 5.515455000000000219e+00 8.146055000000000490e+00 5.614074999999999704e+00 6.663185000000000358e+00 4.967624999999999957e+00 2.190275000000000194e+00 2.184175000000000200e+00 1.473811500000000052e+01 4.196099999999999830e-02 4.677654999999999674e+00 5.728354999999999642e+00 7.240425000000000111e+00 9.655550000000000521e-01 4.113134999999999764e+00 1.331431500000000057e+01 4.345939999999999803e-01 5.075054999999999872e+00 1.106071500000000007e+01 6.331294999999999895e+00 7.556915000000000049e+00 1.336011500000000041e+01 9.408694999999999808e+00 1.013981500000000047e+01 6.932405000000000150e+00 9.105050000000000088e-01 3.352364999999999817e+00 5.116145000000000387e+00 6.242404999999999760e+00 9.718114999999999171e+00 1.852845000000000075e+00 5.867375000000000007e+00 1.045171500000000009e+01 1.123831500000000005e+01 1.442861500000000063e+01 2.710704999999999920e+00 1.458461499999999944e+01 1.353631500000000010e+01 1.379911500000000046e+01 1.414281500000000058e+01 1.170791499999999985e+01 1.290341500000000075e+01 1.782885000000000053e+00 7.281295000000000073e+00 1.176301499999999933e+01 8.096785000000000565e+00 8.291444999999999510e+00 1.835464999999999902e+00 5.717335000000000278e+00 1.117401500000000070e+01 1.494241500000000045e+01 3.012824999999999864e+00 9.992514999999999148e+00 1.129801499999999947e+01 1.037161500000000025e+01 7.074065000000000047e+00 5.782225000000000392e+00 9.015549999999999953e-01 7.749300000000000632e-02 8.163524999999999920e+00 1.201951500000000017e+01 3.550885000000000069e+00 6.554585000000000328e+00 1.381631499999999946e+01 1.337069999999999925e-01 9.910415000000000418e+00 6.705924999999999692e+00 7.973584999999999923e+00 1.162011500000000019e+01 3.306735000000000202e+00 8.818604999999999805e+00 1.439091499999999968e+01 2.982724999999999849e+00 1.448661500000000046e+01 1.167411500000000046e+01 1.363181499999999957e+01 1.059591499999999975e+01 3.185284999999999922e+00 4.492524999999999658e+00 2.764254999999999907e+00 1.368001499999999915e+01 1.486841500000000060e+01 6.667105000000000281e+00 8.257649999999999713e-01 2.515404999999999891e+00 5.894574999999999676e+00 3.929704999999999782e+00 1.340531499999999987e+01 1.010111500000000007e+01 5.897384999999999877e+00 1.104354999999999976e+00 1.398441500000000026e+01 8.989874999999999616e+00 7.052984999999999616e+00 1.168451499999999932e+01 1.389371500000000026e+01 1.315821500000000022e+01 2.656305000000000138e+00 1.120201499999999939e+01 6.256810000000000427e-01 3.116544999999999899e+00 1.573334999999999928e+00 1.353321500000000022e+01 8.124124999999999375e+00 2.007144999999999957e+00 4.421895000000000131e+00 1.148811500000000052e+01 2.357854999999999812e+00 4.200334999999999930e+00 6.127405000000000435e+00 1.010341500000000003e+01 1.275731500000000018e+01 5.782614999999999839e+00 4.202435000000000365e+00 1.035751499999999936e+01 1.288291500000000056e+01 1.213724999999999943e+00 8.265325000000000699e+00 1.373741500000000038e+01 6.627295000000000158e+00 1.519091500000000039e+01 5.568809999999999594e-01 1.416811500000000024e+01 2.352615000000000123e+00 7.304325000000000401e+00 1.431871499999999919e+01 4.121904999999999930e+00 5.942854999999999777e+00 4.856774999999999842e+00 7.695965000000000167e+00 4.821575000000000166e+00 8.409584999999999866e+00 9.301185000000000258e+00 9.844815000000000538e+00 1.190931499999999943e+01 2.003315000000000179e+00 8.206514999999999560e+00 4.604524999999999757e+00 1.540575000000000028e+00 7.986855000000000260e+00 9.585095000000000809e+00 1.227031500000000008e+01 1.445661499999999933e+01 1.899815000000000031e+00 8.627045000000000741e+00 9.268335000000000434e+00 3.683765000000000178e+00 1.140881500000000059e+01 6.238855000000000040e+00 1.035311500000000073e+01 3.568935000000000191e+00 9.228865000000000762e+00 1.460171500000000044e+01 8.033905000000000740e+00 1.052691500000000069e+01 3.820555000000000145e+00 1.276831499999999942e+01 3.939624999999999932e+00 9.346754999999999924e+00 1.487645000000000106e+00 4.535664999999999836e+00 6.701455000000000162e+00 7.937624999999999709e+00 9.018375000000000696e+00 9.173495000000000843e+00 1.121421499999999938e+01 4.097775000000000389e+00 1.209671499999999966e+01 1.141571500000000050e+01 6.623635000000000161e+00 8.857945000000000846e+00 5.235405000000000086e+00 3.934825000000000017e+00 1.224221499999999985e+01 8.207535000000000025e+00 9.946714999999999307e+00 1.101341500000000018e+01 7.134954999999999714e+00 1.267181500000000050e+01 1.520001500000000050e+01 9.928914999999999935e+00 1.459951500000000024e+01 5.988694999999999879e+00 3.124975000000000058e+00 2.466324999999999878e+00 5.163854999999999862e+00 6.347385000000000055e+00 1.517851500000000087e+01 6.058144999999999669e+00 4.251305000000000334e+00 4.612255000000000216e+00 1.265731500000000054e+01 6.347110000000000252e-01 6.570475000000000065e+00 1.065051500000000040e+01 1.464351500000000073e+01 9.959115000000000606e+00 8.001585000000000392e+00 1.018021500000000046e+01 3.036749999999999727e-01 2.862124999999999808e+00 1.420771500000000032e+01 1.213861499999999971e+01 1.238401499999999977e+01 5.311449999999999783e-01 1.291954999999999965e+00 4.181815000000000282e+00 1.503155000000000019e+00 3.222414999999999807e+00 1.563935000000000075e+00 7.726695000000000313e+00 5.617544999999999789e+00 3.644189999999999929e-01 1.486541500000000049e+01 1.914535000000000098e+00 8.048849999999999616e-01 1.130981500000000040e+01 7.039724999999999788e+00 1.097091499999999975e+01 2.480525000000000091e+00 1.353351499999999952e+01 1.128931500000000021e+01 9.247944999999999638e+00 7.774734999999999729e+00 9.580400000000000027e-02 5.578495000000000203e+00 1.683724999999999916e+00 1.500671499999999980e+01 9.709815000000000751e+00 1.228181499999999993e+01 8.422665000000000290e+00 1.394991500000000073e+01 1.026421500000000009e+01 1.810605000000000020e+00 1.178171500000000016e+01 4.953694999999999737e+00 1.041311499999999945e+01 6.363475000000000215e+00 2.223695000000000199e+00 2.186055000000000081e+00 5.254414999999999836e+00 2.427095000000000002e+00 6.330675000000000274e+00 1.399411500000000075e+01 9.327724999999999156e+00 6.601944999999999730e+00 2.511905000000000054e+00 8.119305000000000661e+00 1.189771499999999982e+01 1.301501500000000000e+01 4.405644999999999811e+00 9.909515000000000740e+00 3.816974999999999785e+00 1.497361500000000056e+01 9.301864999999999384e+00 5.578935000000000421e+00 7.380255000000000010e+00 1.369431499999999957e+01 1.491741500000000009e+01 3.950375000000000192e+00 7.873854999999999826e+00 1.524631499999999917e+01 6.237985000000000113e+00 8.430414999999999992e+00 1.152669999999999945e-01 8.765864999999999796e+00 9.585124999999999673e+00 1.128101500000000001e+01 1.131781499999999951e+01 9.538394999999999513e+00 9.864715000000000344e+00 2.144144999999999968e+00 4.851894999999999847e+00 1.405794999999999906e+00 9.381749999999999812e-01 5.977644999999999875e+00 1.182061500000000009e+01 7.024225000000000385e+00 1.041221499999999978e+01 3.302855000000000096e+00 5.922105000000000175e+00 1.329551499999999997e+01 5.903825000000000323e+00 4.295720000000000094e-01 5.646284999999999776e+00 3.159254999999999924e+00 1.027171500000000037e+01 3.799605000000000121e+00 1.283841499999999947e+01 1.574934999999999974e+00 1.288771500000000003e+01 1.410151499999999913e+01 1.076241500000000073e+01 1.227871500000000005e+01 4.673255000000000159e+00 8.819364999999999455e+00 3.245464999999999822e+00 1.370871499999999976e+01 1.452691500000000069e+01 2.895655000000000090e+00 1.668735000000000079e+00 6.335474999999999746e+00 1.459211499999999972e+01 1.027641500000000008e+01 1.001641500000000029e+01 8.156655000000000655e+00 2.909835000000000171e+00 9.673014999999999475e+00 1.001531499999999930e+01 9.132365000000000066e+00 1.214751500000000028e+01 4.559915000000000163e+00 5.134924999999999962e+00 2.971124999999999794e+00 1.036561500000000002e+01 1.018421500000000002e+01 6.036475000000000257e+00 5.172320000000000251e-01 6.824649999999999883e-01 4.145735000000000170e+00 3.682605000000000128e+00 9.698114999999999597e+00 1.080201500000000081e+01 1.240164999999999962e+00 6.053804999999999659e+00 1.254801499999999947e+01 6.984035000000000437e+00 4.562764999999999738e+00 6.744214999999999627e+00 3.212329999999999908e-01 6.028125000000000178e+00 4.234045000000000059e+00 2.562895000000000145e+00 2.343694999999999862e+00 1.510011500000000062e+01 8.438625000000000043e+00 5.211185000000000400e+00 1.021841500000000025e+01 7.908504999999999896e+00 1.232341500000000067e+01 8.515364999999999185e+00 1.108041500000000035e+01 1.106811500000000059e+01 1.327211499999999944e+01 1.249821500000000007e+01 4.458300000000000041e-01 1.387031499999999973e+01 1.159934999999999938e+00 1.023221500000000006e+01 2.668355000000000032e+00 5.979334999999999845e+00 9.564355000000000828e+00 1.436081500000000055e+01 1.120561499999999988e+01 6.988224999999999909e+00 7.799414999999999765e+00 6.976404999999999745e+00 7.903195000000000192e+00 6.301790000000000447e-01 9.567035000000000622e+00 6.346754999999999924e+00 1.510601499999999930e+01 6.605615000000000236e+00 1.033901499999999984e+01 8.554814999999999614e+00 5.847204999999999764e+00 1.293491500000000016e+01 2.868405000000000094e+00 1.365281500000000037e+01 1.426901499999999956e+01 1.498711499999999930e+01 4.489374999999999893e+00 4.546744999999999592e+00 6.507024999999999615e+00 7.822115000000000151e+00 1.322481499999999954e+01 3.237860000000000182e-01 5.369175000000000253e+00 1.321661499999999911e+01 1.501601499999999945e+01 1.089119999999999949e-01 8.195444999999999425e+00 3.662434999999999885e+00 4.925645000000000273e+00 3.142624999999999780e+00 1.447191499999999920e+01 9.536654999999999660e+00 7.232025000000000148e+00 9.156114999999999782e+00 1.456441500000000033e+01 4.537085000000000257e+00 1.435631500000000038e+01 1.324941500000000083e+01 1.350701500000000088e+01 7.331724999999999604e+00 1.268291499999999949e+01 5.659144999999999648e+00 1.326091500000000067e+01 1.140565000000000051e+00 1.054899999999999935e-02 9.860314999999999941e+00 4.131795000000000329e+00 8.043245000000000644e+00 9.142474999999999241e+00 6.870999999999999330e-02 1.989765000000000006e+00 1.455771499999999996e+01 1.072941499999999948e+01 1.479491499999999959e+01 5.179274999999999629e+00 1.318591499999999961e+01 1.132141500000000001e+01 8.780075000000000074e+00 9.681549999999999878e-01 1.121661499999999911e+01 7.359949999999999548e-01 5.068335000000000257e+00 7.823615000000000208e+00 7.091154999999999653e+00 1.980145000000000044e+00 4.740539999999999754e-01 1.382641500000000079e+01 3.384044999999999970e+00 3.125995000000000079e+00 1.016071499999999972e+01 2.299255000000000049e+00 6.281844999999999679e+00 1.007361500000000021e+01 5.240255000000000329e+00 7.842844999999999622e+00 2.326385000000000147e+00 2.271844999999999892e+00 6.619234999999999758e+00 7.719795000000000407e+00 8.011815000000000353e+00 6.545994999999999564e+00 5.707394999999999996e+00 1.231801500000000082e+01 3.682475000000000165e+00 4.918935000000000279e+00 9.639715000000000700e+00 1.179065000000000030e+00 6.909195000000000420e+00 1.485851500000000058e+01 1.490521500000000010e+01 1.141811500000000024e+01 1.301441499999999962e+01 2.738424999999999887e+00 1.445061500000000088e+01 3.258814999999999795e+00 7.109104999999999563e+00 1.383251500000000078e+01 1.325201500000000010e+01 8.175074999999999648e+00 6.327684999999999782e+00 1.385281499999999966e+01 1.353571499999999972e+01 1.286271499999999968e+01 7.640055000000000263e+00 1.304651499999999942e+01 1.312131499999999917e+01 1.418081500000000084e+01 6.329925000000000246e+00 9.245775000000000077e+00 7.863584999999999603e+00 1.337301500000000054e+01 3.819484999999999797e+00 1.063471499999999992e+01 4.643595000000000361e+00 1.290541499999999964e+01 1.253361499999999928e+01 2.701995000000000147e+00 2.382975000000000065e+00 3.338064999999999838e+00 4.873495000000000132e+00 1.507071499999999986e+01 5.906354999999999578e+00 1.335401500000000041e+01 1.163381500000000024e+01 4.701405000000000278e+00 2.246185000000000098e+00 1.224251499999999915e+01 1.255541499999999999e+01 5.783274999999999721e+00 5.906715000000000160e+00 2.554244999999999877e+00 3.893159999999999954e-01 8.052704999999999558e+00 2.604095000000000049e+00 1.165151499999999984e+01 1.169351499999999966e+01 7.083965000000000067e+00 6.984704999999999941e+00 3.436174999999999979e+00 2.199570000000000136e-01 1.018721500000000013e+01 5.079195000000000348e+00 1.144861500000000021e+01 1.275081499999999934e+01 1.153521500000000088e+01 3.278224999999999945e+00 6.392954999999999721e+00 5.819015000000000271e+00 1.524531499999999973e+01 1.220081500000000041e+01 9.094445000000000334e+00 1.059801500000000019e+01 8.099434999999999718e+00 8.644150000000000444e-01 5.936035000000000394e+00 1.285525000000000029e+00 6.043965000000000032e+00 1.042135000000000034e+00 2.869244999999999823e+00 9.839615000000000222e+00 1.445081500000000041e+01 1.580615000000000103e+00 1.018681499999999929e+01 5.253454999999999764e+00 9.783915000000000362e+00 5.779115000000000002e+00 8.799949999999999717e-01 1.260991500000000087e+01 2.476374999999999993e+00 6.411635000000000417e+00 1.095201499999999939e+01 1.216181500000000071e+01 8.723425000000000651e+00 4.652124999999999844e+00 1.616214999999999957e+00 1.086491499999999988e+01 4.219464999999999577e+00 3.301565000000000083e+00 1.419551500000000033e+01 4.145215000000000316e+00 1.013681500000000035e+01 7.665695000000000370e+00 1.149991499999999967e+01 2.417714999999999836e+00 1.473301499999999997e+01 1.224811500000000031e+01 1.425731500000000018e+01 3.022174999999999834e+00 3.321785000000000210e+00 3.535445000000000171e+00 1.306051500000000054e+01 4.971804999999999808e+00 2.593834999999999891e+00 1.492811500000000002e+01 1.504591500000000082e+01 6.123135000000000439e+00 1.086091500000000032e+01 1.027031500000000008e+01 6.079400000000000082e-02 6.370384999999999742e+00 1.484041500000000013e+01 4.647344999999999615e+00 1.858004999999999907e+00 1.459705000000000030e+00 2.338645000000000085e+00