-7.784492226610110083e+04
-7.785186024339240976e+04
-7.785559378310784814e+04
-7.781072648042852234e+04
-7.785752038741475553e+04
-7.781446449944972119e+04
-7.786460295340621087e+04
-7.782398674944018421e+04
-7.785451018383845803e+04
-7.786264533819579810e+04
-7.784836602548789233e+04
-7.783762683626497164e+04
-7.785739663603380905e+04
-7.783400652846712910e+04
-7.786761416041389748e+04
-7.785964100893019349e+04
-7.784118281317382935e+04
-7.785975664808633155e+04
-7.786041209831085871e+04
-7.783380292352665856e+04
-7.780571452844579471e+04
-7.785591730865961290e+04
-7.784751154629456869e+04
-7.785332442244910635e+04
-7.786140019539347850e+04
-7.783041964510772959e+04
-7.786122003342107928e+04
-7.784440093361416075e+04
-7.786712263662213809e+04
-7.785136727908867761e+04
-7.786131907026261615e+04
-7.781977990846136527e+04
-7.784652208696596790e+04
-7.780784177023584198e+04
-7.785595345265520154e+04
-7.783564696292320150e+04
-7.786399890583116212e+04
-7.781153872183112253e+04
-7.781982428744435310e+04
-7.785952345610519114e+04
-7.784817245617156732e+04
-7.780600857713339792e+04
-7.783119038152239227e+04
-7.784209513402680750e+04
-7.785729179882902827e+04
-7.781470854537920968e+04
-7.783543603212054586e+04
-7.784426641724393994e+04
-7.786243304805677326e+04
-7.780646879795432324e+04
-7.784554722925036913e+04
-7.784065159966725332e+04
-7.782653854114409478e+04
-7.785706271146281506e+04
-7.784867338884781930e+04
-7.783315505280770594e+04
-7.784542324840847868e+04
-7.786550890836586768e+04
-7.785654138524961309e+04
-7.783706718761319644e+04
-7.779593281355885847e+04
-7.783007160736438527e+04
-7.784174535561163793e+04
-7.779563596349688305e+04
-7.782898348516540136e+04
-7.784939162887913699e+04
-7.780388109210622497e+04
-7.783342801869052346e+04
-7.779308748652048234e+04
-7.784784029546318925e+04
-7.781960955590577214e+04
-7.785853716631799762e+04
-7.783698979758114729e+04
-7.783909372567442188e+04
-7.780067324704886414e+04
-7.784750858418711869e+04
-7.785982947058088030e+04
-7.781389480220621044e+04
-7.780734645152291341e+04
-7.783002973446703982e+04
-7.785113316507943091e+04
-7.782956657758430811e+04
-7.781471579780170578e+04
-7.780582353355282976e+04
-7.782572701735689770e+04
-7.785506277839453833e+04
-7.784251304679420718e+04
-7.784488367271776951e+04
-7.785642673894095060e+04
-7.786502929090155521e+04
-7.786489045526047994e+04
-7.781253410473992699e+04
-7.784479974525319994e+04
-7.782391984967567259e+04
-7.786028138683990983e+04
-7.780134515244541399e+04
-7.782227266925503500e+04
-7.784196505030769913e+04
-7.780961449490154337e+04
-7.781080140651746478e+04
-7.780416528276755707e+04
-7.781932988228337490e+04
-7.783108319006279635e+04
-7.782532915882601810e+04
-7.785982695683948987e+04
-7.782691881973079580e+04
-7.784072722534369677e+04
-7.782497855617494497e+04
-7.780585423622869712e+04
-7.786633423007513920e+04
-7.786274374262633501e+04
-7.786097936622338602e+04
-7.783304216436736169e+04
-7.779655767610274779e+04
-7.779526885930068966e+04
-7.785795173735151184e+04
-7.784424290371508687e+04
-7.784344514149958559e+04
-7.785129517503957322e+04
-7.779391432940305094e+04
-7.783715489706525113e+04
-7.783032371979164600e+04
-7.785216762781555008e+04
-7.785086934940813808e+04
-7.781694004373962525e+04
-7.784909709336163360e+04
-7.780490462810538884e+04
-7.785615430368861416e+04
-7.784847076966759050e+04
-7.785131374551166664e+04
-7.783829646649277129e+04
-7.780468251434122794e+04
-7.786289121449438971e+04
-7.783593580245928024e+04
-7.781739335917633434e+04
-7.782848868143439176e+04
-7.783149703632628371e+04
-7.785542178554186830e+04
-7.784961877398294746e+04
-7.784932384237280348e+04
-7.784885416072933003e+04
-7.783309448327908467e+04
-7.780554588578185940e+04
-7.782232380537630524e+04
-7.786262111332203494e+04
-7.785918190075588063e+04
-7.785982332977250917e+04
-7.780650556836908800e+04
-7.783004038504061464e+04
-7.785975933513023483e+04
-7.780534803711087443e+04
-7.785081024176794745e+04
-7.784781777404043532e+04
-7.783986103137151804e+04
-7.782748494968634623e+04
-7.784337527194021095e+04
-7.780470035995038052e+04
-7.783440805817118962e+04
-7.782740800309716724e+04
-7.784408505283651175e+04
-7.780898339585967187e+04
-7.784336286676095915e+04
-7.783343313281427254e+04
-7.782781435866333777e+04
-7.779261897612382018e+04
-7.785180598028952954e+04
-7.784668594958407630e+04
-7.784173875365211279e+04
-7.786309745575413399e+04
-7.783330628993705614e+04
-7.783898879518556350e+04
-7.784581466676629498e+04
