6.159813467541852550e-01 -1.003602948273429440e+00 1.326392635559871414e+00 -5.294405782949024308e-01 3.749460618863297956e+00 3.301934879837507442e+00 -2.648768693429166543e+00 2.932194273841806087e-01 1.021771907374839500e-01 5.926675583797011093e+00 8.904291484061330753e-01 1.176313732085490393e+00 2.515219927765725672e+00 3.953662791018535128e-01 1.111378459497061044e+00 -2.147518206745461011e+00 -1.897874353561393557e+00 -1.657498813819259231e+00 -3.184404088192941962e-01 6.191530598761250115e-01 6.149920890200757384e+00 -1.505733780752329887e+00 -2.017105158756726357e+00 1.065892041269527191e+00 -1.538777087091941942e+00 1.016470806438705132e+00 -1.497252224942784649e+00 4.435648514342910964e+00 -2.063153105961101463e+00 2.299737810888880407e+00 3.846623129580490463e+00 1.331991470266693733e+00 -1.649614268213114077e+00 -6.257541106780609708e-01 -2.712351051422293935e+00 -4.279571226697416186e+00 3.566035018851193783e+00 -2.980599922839970883e+00 6.304571729694457005e-01 1.497561271568317531e+00 7.086063742372669116e-01 1.852503120765006894e+00 -2.395961868874630696e+00 -8.096353102080043884e-01 -1.016434296770796886e+00 -1.035061426493421255e+00 -1.688387021310938652e-01 4.665642452882249325e-01 -2.955415965293440195e+00 3.424462867999421789e+00 -5.037909939273736981e+00 -5.628239901888031582e+00 2.306610370207092142e+00 3.361265661291692020e+00 -1.078970729911456150e+00 2.954513508009230627e+00 3.554124125361652453e+00 -1.000289310245255026e+00 -2.133673843518809399e+00 -1.603499986541694566e+00 1.846555644440694754e+00 -4.313319015361453679e-01 -2.746859372464307114e+00 2.157730629346259033e+00 -2.225495658307910851e+00 6.043203645125787560e-01 -2.600085365266629811e+00 -8.623362445024666201e+00 2.200966817901028438e+00 -5.047708928452026456e+00 2.697154287821015295e+00 3.312452235298440684e+00 -1.000099562816267218e+00 -4.925868967552944899e-01 -3.270514968168122483e+00 -8.075835697156991122e-02 -1.580235100553380345e+00 -3.216694061244025793e+00 -9.139897112824362235e-01 5.398749385389287170e+00 4.400597176268347788e+00 1.505360456542451653e-01 3.956741944419017276e+00 -1.141019681852439405e+00 3.306466706644196396e+00 4.312064316915031892e-01 1.880851078123356057e+00 -9.991120020103844368e+00 -4.294513965285362112e+00 3.877146754613762236e-01 3.831905619648090511e-01 -2.818493912003552815e+00 2.927531834983727599e+00 1.832463426848807808e+00 -6.972755216688584223e-01 -1.055540779086542758e+00 1.648321517436759365e+00 3.636973303596810148e+00 -3.073229578309125687e-01 3.098242814591634975e+00 -2.817414562807223799e+00 3.830208691421372325e-01 -1.883970340736469629e+00 2.186556811932137911e+00 9.427752704350085278e-01 5.622540279928956997e-01 -5.436820741486734221e+00 2.467206114921730808e+00 -8.937361015655355401e-02 3.059442807798047781e+00 1.267641380806144413e+00 -2.135007731949145615e+00 3.027577066803642802e-01 -2.905183290237841831e+00 3.260436757163437949e-01 -2.611131339581219457e+00 -1.431243259585449401e+00 -1.968320529121260876e+00 1.552292349086745071e+00 2.024268252756178388e+00 -1.343658623156397114e-01 3.654043373116251825e+00 -1.334290550903560080e+00 -6.000102182387807126e+00 4.933226436967457218e+00 2.431732087452512570e+00 1.088862793031876830e+00 8.436011284381420561e-01 3.553264862614123332e-01 1.893805325361991976e+00 2.482358655544979698e+00 -1.788042988080058293e-01 1.786274068958872752e+00 -2.399070847074249446e+00 2.999908909177331218e+00 -1.703491739411434613e+00 -1.348963323637254907e+00 -2.089612845001719565e-01 -1.929721582611506614e+00 8.179075782029210373e-01 -1.239780904647471149e-01 -4.440069269483850056e-01 -2.444060528129961885e+00 2.007809591619030609e+00 9.872430175058360957e-01 -1.132464078265728480e+00 6.937181944629138286e+00 -6.862064074239044853e-01 -2.800624229334854665e+00 -8.831035606734556342e-01 -2.227418843631525924e-01 3.214266425438469188e+00 -2.906369083113845786e+00 -1.687343153341169244e-01 1.179514241565217114e-01 1.633622519448651444e-01 1.118417112093220478e+00 -1.559191647880043607e+00 -8.931313780520140355e-01 -1.286328160127041320e+00 1.557420157655484139e-02 -4.213368914366371065e+00 -3.144433715143593933e+00 5.318300075043249642e+00 -1.607836409491973262e+00 2.153504249620379785e+00 -2.867484744129597640e+00 1.521477675151556630e+00 3.715840356926600752e+00 -3.705607879719486908e-01 -1.149558984643760517e+01 2.076972786595363996e+00 -3.830260113488848650e-01 1.398077054504568650e+00 -2.323477836780676320e+00 -1.699908135529009545e+00 -3.416483705789120418e+00 -2.605371553803196072e+00 4.897216591555135778e-01 -3.436798507766317901e+00 2.164647925863174560e-01 -1.052755245691350261e+00 -2.152067517055091361e+00 1.257377536137869845e+00 -4.278154548738443808e+00 1.484108744495835852e+00 -1.244397577865495874e+00 6.131626975475379382e+00 -2.661934799585805145e+00 4.300744262980793486e+00 1.388005014147980776e-01 2.771732740723280131e+00 2.682461460481004867e+00 -1.444384683149699145e+00 -2.892374053229489039e+00 -3.299630656993893241e-01 -4.758253596407112096e-01 -1.017694137423967062e-02 -4.173193367267791665e+00 1.874525135382418162e+00 4.365527840470168064e-02 -2.912816896154702295e+00 3.623738806090427977e-01 -1.058762885834609424e+00 6.611756876384534687e-01 3.555508921638790731e+00 1.364677393237345493e+00 -1.023260062007604443e+00 6.125838907560244850e-01 -3.932615738800475103e-01 -3.178963633453947057e+00 -6.203337105453814448e-01 1.629164226198454024e-01 -2.496744493142156518e+00 3.214429433392368640e+00 4.189495705319810526e+00 1.320654447050187974e+00 -5.888304951266850606e-01 1.238057751166339315e+00 -3.781330987843774860e+00 -3.274091887181776350e+00 3.115954631513180306e+00 3.086320094026573813e+00 -9.042174615792351045e-01 -3.265120279069181120e+00 -2.224463103192986235e+00 -3.829191048706015454e+00 3.294606206780781754e+00 -3.285745156113260901e+00 5.603230265150246581e+00 -1.437834540194564692e+00 -1.353327000283296222e+00 3.146069965330690277e+00 5.936605699247364809e-01 -8.118747412465985303e-01 -1.613534488789025056e+00 3.797118591000356869e-01 -1.577294272514409457e+00 -2.372555572200756302e+00 -3.386431106893931786e-01 1.938919962041671718e+00 -3.698048835800466616e+00 -5.216048836528598409e-01 -1.447932291584890785e-01 -5.799694444591646514e-01 4.182549098224433770e+00 7.660077997197400901e-01 1.657202108489920667e+00 -6.661008932613358136e-01 7.426642379681871464e-01 1.095268954198077571e+00 -6.501247253833185802e+00 -1.007822128909861892e+00 -1.511413862325764912e+00 3.238104153258469231e-01 1.920141137219991967e-01 7.438680285678079818e-01 -4.167043802218298176e-01 -6.083240866862855700e-01 -4.400467078437633184e+00 2.750743795441468631e+00 1.980650512460734536e+00 -1.755219253968569815e+00 -1.200295955915099633e+00 1.068332532591953710e+00 5.685475234092556285e+00 -5.007094751117874942e+00 -4.940868784635788491e-01 -1.048725298263230465e+00 1.357200624626287544e+00 5.396416880408561045e-01 -2.466554083106130335e+00 7.821934096785883028e-01 1.803925722061471060e+00 1.522019149522082282e+00 -3.506141679978818093e-01 1.831443727250752218e+00 4.994769395764472875e-01 1.556037418261045691e+00 -6.224163042781726274e-01 2.638836521096114218e+00 3.972324373526369357e+00 -1.108302905641301628e+00 -1.249010651538796868e+00 3.689121964886576510e+00 -1.217537775139911682e+00 -2.548547083917807043e+00 6.831961595938403908e-01 8.031211627001035858e-01 -9.635467003713957951e-03 -3.220262238506208519e+00 4.933160616721087854e-01 -6.915651010756125316e-01 9.240710076111698923e-01 1.963887432684126910e+00 1.793778605486368027e+00 3.437832605543267306e-01 3.167661063022650381e-01 2.038112101762155071e+00 1.745606412674545638e+00 -1.778581327664414402e-01 -2.577966677162362608e+00 1.543550597615769515e+00 -9.948036040868803997e-01 9.745829044931648699e-01 -6.521727120646981790e-01 -1.928906028621331981e+00 3.185223241727839660e+00 -9.245024387572960967e-01 -3.048094471726697563e+00 3.504886981532396195e+00 2.323516403331283564e-01 3.000952777147100292e+00 6.481108829547432837e-01 3.262074035791884263e+00 -2.275835291263859972e+00 -4.804816278506925942e-01 7.982144690215124960e-01 4.027046195072650825e+00 -4.258641931013876780e-01 -1.715760016269936683e+00 2.293804732743462416e-01 -1.029741813612995438e+00 1.219613684003930887e+00 -1.237765159602399051e-01 -9.465373088915765010e-01 -1.153585178260954525e+00 -4.250822691433427281e+00 -2.860791647826879114e+00 -4.909682843373420980e+00 -2.065293806630140949e+00 -6.763477686473433614e-01 1.932312740591638489e+00 -1.551056162584613984e+00 9.107501210314276063e-01 1.049096051369734939e+00 -2.619028740704232999e-02 -5.028291441552291019e+00 -2.138800623646198940e+00 3.258590704941037308e-01 -3.422800906778587393e+00 -3.104499851762154261e+00 -1.700519543911303222e+00 9.707524746868533283e-01 -3.282080305364223349e-01 -3.397349040260504882e+00 -5.818212559531221295e+00 2.199380961340058782e+00 -1.276090540713179511e+00 -3.613222993291519414e-01 3.929674396540829284e-01 2.758903449108612183e+00 -3.322108271129144974e+00 -9.806342533937787431e-01 3.451963389685760997e-02 -2.150727457976658652e+00 5.204324605143997168e-02 1.044119937900050837e-01 4.869921758138701651e-01 -5.271522962922060573e-01 6.750123375549832438e-02 4.637708443167085193e+00 -1.486777035577182327e+00 4.482293985971360861e+00 2.932004012192143683e-01 -3.741667604537260328e+00 2.487537886181195201e+00 2.016529231600991068e+00 4.132817788326730302e+00 -1.353228269913741288e-01 3.944944693698599458e+00 1.504893544169766617e+00 2.112975432918238639e+00 -3.816242457894801765e-01 1.218018057250140451e+00 -1.940463138286635969e+00 1.007303280249025823e+00 4.929643347305706635e-01 1.112017121575116896e+00 -1.266532721031354836e+00 3.784767010392543068e-02 1.666175773485214506e+00 1.383456218059024856e+00 -9.529301003202333975e-01 -1.406811092665422702e+00 -1.580796629530221709e-01 1.480631070072411903e+00 2.009761059079757661e+00 1.818540387858917695e+00 2.335564079520311864e+00 -4.144797587386690019e+00 -2.258679861112408371e+00 6.582725519749423881e+00 1.272593840124789599e+00 2.463831798853934330e-01 7.937582326540140176e-01 -3.108037175783850081e+00 1.800665562983472245e+00 -1.487884666910622489e+00 1.359373721197837170e+00 9.181528418653194246e-01 3.976747699770681876e+00 2.500584178920613798e+00 2.030274864458088135e+00 2.981784173053950493e+00 5.794110008063717565e-01 2.251402095902483858e+00 -9.453813408147089259e-01 2.271558003691179550e+00 -2.939576425848707597e+00 -4.830699576171133991e+00 4.032621375628434035e-01 9.463336775043704741e-01 -5.741119567529363588e-01 -1.047161038970600755e+00 -3.425136497083362541e-01 -8.171604155624900834e-01 -3.350669630067520721e+00 8.546116215261729820e-01 7.431635462433822115e-01 7.854530545359127425e-01 3.282561101695126382e+00 2.962336861355078899e+00 -6.729760236829206155e-02 -3.889683454664490392e-01 -1.314972822814728604e+00 1.851965245939204197e+00 -3.318463474986423023e+00 -1.227239062389995222e-01 1.078037933607435495e+00 -8.201506087862384664e-01 -8.572757988421214614e-01 -2.251204120942699838e+00 -2.012224690332548249e+00 2.702143256807568505e+00 -1.069065811274166000e+00 -4.744724450454091969e-01 2.221885829171072746e-01 2.841647212105443465e+00 -2.951672953001838184e+00 -6.365606638464807787e+00 1.126811764608730629e-02 1.945985868333593716e-01 -2.259455820110626068e+00 -3.974442448485719037e+00 1.711396853844570298e+00 -1.823804464906469525e+00 1.626850233162019377e-01 3.018362232311885274e-01 2.528398375218558591e+00 3.918032440464189192e-01 9.585926983907264720e-01 4.135208400243704396e+00 3.139922971384570438e+00 -8.026442230242604836e+00 -5.156363242808827962e-01 1.153779553676014924e+00 2.523383695198267579e-02 2.409747096723684034e+00 -1.368621465812779547e+00 1.235651712629122212e-01 2.455729737902364374e+00 1.550836076135815311e+00 -1.402701955253389476e+00 1.093181732479213464e+00 8.112263089757220103e-01 -2.821307213315181972e+00 1.973083241010918476e+00 -3.529147912967726120e-01 9.629126662794126323e-01 -7.023868751760052875e-01 -1.731614982334912067e+00 -1.016389559572092427e+00 -5.407287505473055145e-01 -1.554324034972734525e+00 1.641010327882975295e+00 5.757862592699656279e-01 -3.791856056614829829e+00 -2.882050558962941711e+00 1.069930216228443198e+00 -2.973753588776172907e-01 -2.920845937770455869e+00 -5.776722150167272751e+00 5.288264959651001185e+00 9.501018866090354953e-01 -2.171712289493072490e+00 1.210742863143590003e-01 1.841847439942562614e+00 1.203601880633152321e+00 -7.562977707181853804e-01 6.304880262099316068e-01 3.369060732500428479e-01 -1.529058316338916645e+00 1.010251821598118438e+00 2.178810591687504239e+00 4.312933864076057056e+00 -8.043604345262831412e-01 6.212531371118582335e+00 7.277976040401065161e-01 3.284763508845137903e+00 -4.361438757664449994e+00 -6.319412138368125931e-02 -2.727059305382547816e+00 -5.030147778188186480e-01 3.159509636886303152e+00 -2.322331638896629080e+00 5.433127094379909261e-01 4.459573659677620872e-01 1.702699839572299201e+00 2.786605031078783767e+00 -2.230596727401562562e-01 1.277883113985404329e+00 -1.831314143640712100e+00 -2.997457619220734948e+00 -1.680396546245792377e+00 -1.188229767781779467e+00 3.847424799612446100e-01 -3.148737742191362043e-01 -3.641834231635347474e-01 2.407240270934213111e+00 7.239918568261837217e-01 -1.286587327347122001e+00 -5.466206910387430007e-01 -6.286990524824301874e-01 3.855301117687795376e+00 3.101007779159837066e-02 1.406133864036759329e+00 -3.781557244940670248e+00 3.942781881540544653e-01 -1.391848299471161177e+00 -9.003325243813986578e-01 -1.382874120255192851e+00 1.415798127398260275e+00 1.152291399043250120e-01 5.219987766897286052e-01 3.470829117801475405e+00 -2.329847488278968370e+00 2.374533264915896336e+00 -4.398670905620685190e+00 3.802316847801537669e+00 -3.864039269614047090e+00 -6.988320676513669616e-01 -1.654031938030005311e-01 -2.186440083838966597e+00 6.012021303408143780e-01 -2.457994365754021970e+00 -3.525828104291455212e+00 -7.392698672940748450e-01 -1.379313142082457366e+00 -2.186356265868980131e+00 2.432923022535264046e+00 -1.816625944286774041e+00 -2.483367042288190385e-01 1.294781433799474524e+00 5.296815935251640184e+00 -5.332015883101210996e-01 -5.317282946548567146e+00 -6.189740596592399058e+00 1.937707429690579852e+00 5.555340379488868940e+00 -1.201267832990401851e+00 3.879448920574677828e+00 2.586072337658656295e+00 1.429773102676300978e+00 2.732959473404781736e+00 -1.895160811060667916e+00 -2.498323664834354307e+00 -1.392735330135127958e+00 1.359392747362803355e+00 -1.860409263639491995e+00 2.697667994275104064e+00 2.280697247743746769e-01 -7.335208801502215437e-01 2.707747233721138347e-01 1.133645757376334329e+00 3.036246827380151281e-01 2.132050963069256788e+00 1.334104917239970600e+00 -3.318864567112738140e+00 -2.047812874791564042e+00 1.730174136004225760e+00 3.141523740345108617e+00 -5.133907225941916064e-01 -6.619436247941448137e+00 5.718704174095758042e+00 -1.869648266502963452e+00 1.043800606861022828e+00 -3.472669513596453594e+00 1.914387522090065907e+00 -1.238257268788147680e+00 -2.105141795158895324e+00 -1.807173539843276000e+00 7.712945024769810587e-01 -4.774112162016811434e-01 -1.185356816871877328e+00 -3.784090810205229527e+00 9.320938785788261960e-01 1.925303912794615324e-01 -8.723501779228063358e-01 -1.077626557067624946e-01 8.634562171321009671e-01 3.403498091089323996e+00 7.332997652600733440e-01 2.168187820988244585e+00 -1.171306251154645928e+00 4.516870698363116610e+00 6.638792028360211539e+00 -1.625155361817999689e+00 2.376938789232438953e-01 -2.508989630070293853e+00 5.533173868861849254e-01 5.052583226228106739e-01 1.358388988605665482e+00 2.138484377931219593e-01 1.334705012767419374e+00 1.132311354725323627e+00 1.439112378571351547e+00 4.268545821209817487e-03 -3.489403797015274478e+00 9.287802405506517811e-02 -1.416441417462388941e+00 -2.370290944349099149e+00 -6.862238909268465470e-01 3.501833024944976724e+00 5.450808572281643727e+00 -8.271717778794560161e+00 -5.892691253622581726e-01 2.164198496993431142e+00 6.644041707228869775e+00 -2.036610063171170992e+00 2.797852579897880165e+00 -3.090157722922331485e-01 9.023261579374557417e-01 1.472808230947238561e+00 -8.415704709935020178e-01 -2.364171718319416193e+00 1.030413385814236138e+00 4.919806305797485568e-01 6.495830967465904271e-01 -1.631503930268626834e-01 -1.166036517679672063e-01 -3.530819130160707253e-01 -2.330056261872922807e+00 8.327324059901433984e+00 -1.613449128157014467e+00 -1.898991240866979291e-01 3.285060728395150953e+00 -3.894551581792474515e+00 1.066769301740673415e+00 1.496389876871206726e+00 -3.079011475576163281e+00 1.126260520045384350e+00 2.571103373816297610e-06 1.395665359539929096e+00 -1.980375404399735917e+00 4.187772037618004983e-01 -8.605637258365576858e-02 4.689457554992559452e+00 -2.569035692483074396e+00 6.320646267987557743e-02 -5.611674797071207754e-01 2.425023050308876105e+00 -2.837056249921156681e+00 -1.166679293523125993e-01 -1.972592160266519512e+00 -1.614618980192100484e+00 -1.750045679759776984e+00 -1.821292496910250913e-01 -1.050721502922661754e+00 -5.455490551525363774e-01 1.383604313613356895e+00 -1.716606937721271597e+00 1.945250018548007498e+00 1.260804302714492398e+00 1.817677525566665231e-01 1.973239564096046228e-01 -6.131536472636620605e-01 5.455037523110897624e+00 9.101556819314012836e-01 1.649583929193303156e-01 2.104839947622809238e+00 1.500258359007450748e+00 -1.626608549444880647e-01 1.003252763993915497e+00 -2.716451961303531171e+00 1.452249174149528477e+00 -2.765397027789522788e+00 8.236977030007553990e-01 7.156229153444114699e-01 1.367189361233563938e-01 -1.453360919248366745e+00 -1.470588854514960353e-01 -1.806360042735800420e+00 -1.164086078660295120e+00 -2.540083011611204533e+00 9.791178166239019598e-01 -3.635757171700994661e+00 2.609027148580088107e-01 -5.234884739845178103e-01 5.090167615346552488e-01 -1.084497059503136684e+00 4.058579235290483145e-01 1.027151169853538049e+00 4.597019189614417911e+00 -3.116603063784056715e+00 -1.156408249765404905e+00 -2.196266326713017580e+00 -6.597461541626113979e-01 -8.925955601089107239e-01 -1.157148213316389063e+00 -1.280812114948855829e+00 -6.452533586650838204e-01 -1.789549654657114797e+00 -1.771036681924287981e+00 -1.625076171834086036e+00 5.216969291536426301e-01 -2.649034545518019090e+00 4.709860288705141618e-01 1.352045562361786080e-01 -6.807906352772978842e-01 4.686149573391808487e-01 -1.148208486885629931e+00 1.020559889244422536e+00 1.813779732851959481e-01 3.262016957296984820e+00 -1.699313696428983445e+00 2.640039283254385083e+00 -9.265896604761600930e-01 2.303605778804449944e+00 4.377473186744919587e-01 -2.369183313015659209e+00 -2.059229602212657717e+00 -1.932875298009829379e+00 -2.741299104308092094e+00 1.776410802196238592e+00 2.902314967314012506e+00 -3.296324218055165733e+00 -2.885038181083316111e+00 7.870568059763643376e+00 6.983147102304875453e+00 -1.312008854845393424e+00 2.885457785153922927e+00 3.250936530197186869e+00 -1.007333619268836689e+00 -1.140046776335787326e+00 2.237421464197020260e+00 4.540306305615452453e-01 2.385509819439392665e+00 1.458908331887712739e+00 -6.623100584469812091e-01 -5.683115475416068707e-02 3.257730927972833257e+00 1.832168264181493686e-02 1.325036635640520544e+00 3.786557526782069250e+00 3.906369915560558015e-01 2.816995987177966843e+00 -1.488038418892376757e+00 8.611756484395260980e-01 -4.636588984758125420e-01 5.639519846609638565e-01 1.719948343665883339e+00 1.223478566595451511e+00 8.554811686871975906e-01 4.745608910014683657e-01 -1.854488012569592836e+00 -3.519933078475969146e-01 2.421249698997463451e+00 -1.766759394351607310e-02 -2.305102160968011404e-01 -1.060204760606645591e+00 3.485053490106777008e-01 -4.218243212142451348e+00 -1.527520282300699694e+00 1.382403608337784418e+00 -1.280003245827453229e-01 1.447485948039196391e+00 -1.568599315124837412e+00 1.588294481188945229e+00 -1.456204045359132504e+00 1.052467282113482838e+00 1.116996320368849549e+00 4.283036559824646150e-01 -1.620460527057411282e+00 -9.585021955519681391e-01 -1.573151196537841745e+00 -5.324215155465050753e-01 -1.535970470649084429e+00 3.411426859673498679e+00 -2.922982010453422763e+00 -8.951502084211346300e-02 -2.528795867800150088e+00 -2.246252690065404511e+00 -1.550713691615221768e+00 1.574661976880296299e+00