1.021199999999999974e+01 0.000000000000000000e+00 0.000000000000000000e+00 0.000000000000000000e+00 1.021199999999999974e+01 0.000000000000000000e+00 0.000000000000000000e+00 0.000000000000000000e+00 1.021199999999999974e+01
1.015199999999999925e+01 0.000000000000000000e+00 0.000000000000000000e+00 0.000000000000000000e+00 1.015199999999999925e+01 0.000000000000000000e+00 0.000000000000000000e+00 0.000000000000000000e+00 1.015199999999999925e+01
1.077699999999999925e+01 0.000000000000000000e+00 0.000000000000000000e+00 0.000000000000000000e+00 1.077699999999999925e+01 0.000000000000000000e+00 0.000000000000000000e+00 0.000000000000000000e+00 1.077699999999999925e+01
1.013499999999999979e+01 0.000000000000000000e+00 0.000000000000000000e+00 0.000000000000000000e+00 1.013499999999999979e+01 0.000000000000000000e+00 0.000000000000000000e+00 0.000000000000000000e+00 1.013499999999999979e+01
1.032199999999999918e+01 0.000000000000000000e+00 0.000000000000000000e+00 0.000000000000000000e+00 1.032199999999999918e+01 0.000000000000000000e+00 0.000000000000000000e+00 0.000000000000000000e+00 1.032199999999999918e+01
1.098300000000000054e+01 0.000000000000000000e+00 0.000000000000000000e+00 0.000000000000000000e+00 1.098300000000000054e+01 0.000000000000000000e+00 0.000000000000000000e+00 0.000000000000000000e+00 1.098300000000000054e+01
1.055799999999999983e+01 0.000000000000000000e+00 0.000000000000000000e+00 0.000000000000000000e+00 1.055799999999999983e+01 0.000000000000000000e+00 0.000000000000000000e+00 0.000000000000000000e+00 1.055799999999999983e+01
1.122799999999999976e+01 0.000000000000000000e+00 0.000000000000000000e+00 0.000000000000000000e+00 1.122799999999999976e+01 0.000000000000000000e+00 0.000000000000000000e+00 0.000000000000000000e+00 1.122799999999999976e+01
9.973000000000000753e+00 0.000000000000000000e+00 0.000000000000000000e+00 0.000000000000000000e+00 9.973000000000000753e+00 0.000000000000000000e+00 0.000000000000000000e+00 0.000000000000000000e+00 9.973000000000000753e+00
1.025900000000000034e+01 0.000000000000000000e+00 0.000000000000000000e+00 0.000000000000000000e+00 1.025900000000000034e+01 0.000000000000000000e+00 0.000000000000000000e+00 0.000000000000000000e+00 1.025900000000000034e+01
1.071799999999999997e+01 0.000000000000000000e+00 0.000000000000000000e+00 0.000000000000000000e+00 1.071799999999999997e+01 0.000000000000000000e+00 0.000000000000000000e+00 0.000000000000000000e+00 1.071799999999999997e+01
1.012899999999999956e+01 0.000000000000000000e+00 0.000000000000000000e+00 0.000000000000000000e+00 1.012899999999999956e+01 0.000000000000000000e+00 0.000000000000000000e+00 0.000000000000000000e+00 1.012899999999999956e+01
1.110100000000000087e+01 0.000000000000000000e+00 0.000000000000000000e+00 0.000000000000000000e+00 1.110100000000000087e+01 0.000000000000000000e+00 0.000000000000000000e+00 0.000000000000000000e+00 1.110100000000000087e+01
1.039400000000000013e+01 0.000000000000000000e+00 0.000000000000000000e+00 0.000000000000000000e+00 1.039400000000000013e+01 0.000000000000000000e+00 0.000000000000000000e+00 0.000000000000000000e+00 1.039400000000000013e+01
1.038700000000000045e+01 0.000000000000000000e+00 0.000000000000000000e+00 0.000000000000000000e+00 1.038700000000000045e+01 0.000000000000000000e+00 0.000000000000000000e+00 0.000000000000000000e+00 1.038700000000000045e+01
9.983000000000000540e+00 0.000000000000000000e+00 0.000000000000000000e+00 0.000000000000000000e+00 9.983000000000000540e+00 0.000000000000000000e+00 0.000000000000000000e+00 0.000000000000000000e+00 9.983000000000000540e+00
1.112800000000000011e+01 0.000000000000000000e+00 0.000000000000000000e+00 0.000000000000000000e+00 1.112800000000000011e+01 0.000000000000000000e+00 0.000000000000000000e+00 0.000000000000000000e+00 1.112800000000000011e+01
1.050099999999999945e+01 0.000000000000000000e+00 0.000000000000000000e+00 0.000000000000000000e+00 1.050099999999999945e+01 0.000000000000000000e+00 0.000000000000000000e+00 0.000000000000000000e+00 1.050099999999999945e+01
1.084999999999999964e+01 0.000000000000000000e+00 0.000000000000000000e+00 0.000000000000000000e+00 1.084999999999999964e+01 0.000000000000000000e+00 0.000000000000000000e+00 0.000000000000000000e+00 1.084999999999999964e+01
1.065099999999999980e+01 0.000000000000000000e+00 0.000000000000000000e+00 0.000000000000000000e+00 1.065099999999999980e+01 0.000000000000000000e+00 0.000000000000000000e+00 0.000000000000000000e+00 1.065099999999999980e+01
1.029599999999999937e+01 0.000000000000000000e+00 0.000000000000000000e+00 0.000000000000000000e+00 1.029599999999999937e+01 0.000000000000000000e+00 0.000000000000000000e+00 0.000000000000000000e+00 1.029599999999999937e+01
1.005400000000000027e+01 0.000000000000000000e+00 0.000000000000000000e+00 0.000000000000000000e+00 1.005400000000000027e+01 0.000000000000000000e+00 0.000000000000000000e+00 0.000000000000000000e+00 1.005400000000000027e+01
1.010399999999999920e+01 0.000000000000000000e+00 0.000000000000000000e+00 0.000000000000000000e+00 1.010399999999999920e+01 0.000000000000000000e+00 0.000000000000000000e+00 0.000000000000000000e+00 1.010399999999999920e+01
1.084299999999999997e+01 0.000000000000000000e+00 0.000000000000000000e+00 0.000000000000000000e+00 1.084299999999999997e+01 0.000000000000000000e+00 0.000000000000000000e+00 0.000000000000000000e+00 1.084299999999999997e+01
1.074200000000000088e+01 0.000000000000000000e+00 0.000000000000000000e+00 0.000000000000000000e+00 1.074200000000000088e+01 0.000000000000000000e+00 0.000000000000000000e+00 0.000000000000000000e+00 1.074200000000000088e+01
1.069400000000000084e+01 0.000000000000000000e+00 0.000000000000000000e+00 0.000000000000000000e+00 1.069400000000000084e+01 0.000000000000000000e+00 0.000000000000000000e+00 0.000000000000000000e+00 1.069400000000000084e+01
9.983000000000000540e+00 0.000000000000000000e+00 0.000000000000000000e+00 0.000000000000000000e+00 9.983000000000000540e+00 0.000000000000000000e+00 0.000000000000000000e+00 0.000000000000000000e+00 9.983000000000000540e+00
1.014499999999999957e+01 0.000000000000000000e+00 0.000000000000000000e+00 0.000000000000000000e+00 1.014499999999999957e+01 0.000000000000000000e+00 0.000000000000000000e+00 0.000000000000000000e+00 1.014499999999999957e+01
9.999000000000000554e+00 0.000000000000000000e+00 0.000000000000000000e+00 0.000000000000000000e+00 9.999000000000000554e+00 0.000000000000000000e+00 0.000000000000000000e+00 0.000000000000000000e+00 9.999000000000000554e+00
1.009399999999999942e+01 0.000000000000000000e+00 0.000000000000000000e+00 0.000000000000000000e+00 1.009399999999999942e+01 0.000000000000000000e+00 0.000000000000000000e+00 0.000000000000000000e+00 1.009399999999999942e+01
1.107399999999999984e+01 0.000000000000000000e+00 0.000000000000000000e+00 0.000000000000000000e+00 1.107399999999999984e+01 0.000000000000000000e+00 0.000000000000000000e+00 0.000000000000000000e+00 1.107399999999999984e+01
1.046599999999999930e+01 0.000000000000000000e+00 0.000000000000000000e+00 0.000000000000000000e+00 1.046599999999999930e+01 0.000000000000000000e+00 0.000000000000000000e+00 0.000000000000000000e+00 1.046599999999999930e+01
1.123900000000000077e+01 0.000000000000000000e+00 0.000000000000000000e+00 0.000000000000000000e+00 1.123900000000000077e+01 0.000000000000000000e+00 0.000000000000000000e+00 0.000000000000000000e+00 1.123900000000000077e+01
1.028999999999999915e+01 0.000000000000000000e+00 0.000000000000000000e+00 0.000000000000000000e+00 1.028999999999999915e+01 0.000000000000000000e+00 0.000000000000000000e+00 0.000000000000000000e+00 1.028999999999999915e+01
1.027200000000000024e+01 0.000000000000000000e+00 0.000000000000000000e+00 0.000000000000000000e+00 1.027200000000000024e+01 0.000000000000000000e+00 0.000000000000000000e+00 0.000000000000000000e+00 1.027200000000000024e+01
1.066000000000000014e+01 0.000000000000000000e+00 0.000000000000000000e+00 0.000000000000000000e+00 1.066000000000000014e+01 0.000000000000000000e+00 0.000000000000000000e+00 0.000000000000000000e+00 1.066000000000000014e+01
1.117099999999999937e+01 0.000000000000000000e+00 0.000000000000000000e+00 0.000000000000000000e+00 1.117099999999999937e+01 0.000000000000000000e+00 0.000000000000000000e+00 0.000000000000000000e+00 1.117099999999999937e+01
1.042699999999999960e+01 0.000000000000000000e+00 0.000000000000000000e+00 0.000000000000000000e+00 1.042699999999999960e+01 0.000000000000000000e+00 0.000000000000000000e+00 0.000000000000000000e+00 1.042699999999999960e+01
1.080700000000000038e+01 0.000000000000000000e+00 0.000000000000000000e+00 0.000000000000000000e+00 1.080700000000000038e+01 0.000000000000000000e+00 0.000000000000000000e+00 0.000000000000000000e+00 1.080700000000000038e+01
1.008999999999999986e+01 0.000000000000000000e+00 0.000000000000000000e+00 0.000000000000000000e+00 1.008999999999999986e+01 0.000000000000000000e+00 0.000000000000000000e+00 0.000000000000000000e+00 1.008999999999999986e+01
1.131600000000000072e+01 0.000000000000000000e+00 0.000000000000000000e+00 0.000000000000000000e+00 1.131600000000000072e+01 0.000000000000000000e+00 0.000000000000000000e+00 0.000000000000000000e+00 1.131600000000000072e+01
1.024399999999999977e+01 0.000000000000000000e+00 0.000000000000000000e+00 0.000000000000000000e+00 1.024399999999999977e+01 0.000000000000000000e+00 0.000000000000000000e+00 0.000000000000000000e+00 1.024399999999999977e+01
1.024000000000000021e+01 0.000000000000000000e+00 0.000000000000000000e+00 0.000000000000000000e+00 1.024000000000000021e+01 0.000000000000000000e+00 0.000000000000000000e+00 0.000000000000000000e+00 1.024000000000000021e+01
1.008500000000000085e+01 0.000000000000000000e+00 0.000000000000000000e+00 0.000000000000000000e+00 1.008500000000000085e+01 0.000000000000000000e+00 0.000000000000000000e+00 0.000000000000000000e+00 1.008500000000000085e+01
1.034500000000000064e+01 0.000000000000000000e+00 0.000000000000000000e+00 0.000000000000000000e+00 1.034500000000000064e+01 0.000000000000000000e+00 0.000000000000000000e+00 0.000000000000000000e+00 1.034500000000000064e+01
1.061400000000000077e+01 0.000000000000000000e+00 0.000000000000000000e+00 0.000000000000000000e+00 1.061400000000000077e+01 0.000000000000000000e+00 0.000000000000000000e+00 0.000000000000000000e+00 1.061400000000000077e+01
1.005599999999999916e+01 0.000000000000000000e+00 0.000000000000000000e+00 0.000000000000000000e+00 1.005599999999999916e+01 0.000000000000000000e+00 0.000000000000000000e+00 0.000000000000000000e+00 1.005599999999999916e+01
9.976000000000000867e+00 0.000000000000000000e+00 0.000000000000000000e+00 0.000000000000000000e+00 9.976000000000000867e+00 0.000000000000000000e+00 0.000000000000000000e+00 0.000000000000000000e+00 9.976000000000000867e+00
1.006400000000000006e+01 0.000000000000000000e+00 0.000000000000000000e+00 0.000000000000000000e+00 1.006400000000000006e+01 0.000000000000000000e+00 0.000000000000000000e+00 0.000000000000000000e+00 1.006400000000000006e+01
1.043599999999999994e+01 0.000000000000000000e+00 0.000000000000000000e+00 0.000000000000000000e+00 1.043599999999999994e+01 0.000000000000000000e+00 0.000000000000000000e+00 0.000000000000000000e+00 1.043599999999999994e+01
1.039300000000000068e+01 0.000000000000000000e+00 0.000000000000000000e+00 0.000000000000000000e+00 1.039300000000000068e+01 0.000000000000000000e+00 0.000000000000000000e+00 0.000000000000000000e+00 1.039300000000000068e+01
1.034200000000000053e+01 0.000000000000000000e+00 0.000000000000000000e+00 0.000000000000000000e+00 1.034200000000000053e+01 0.000000000000000000e+00 0.000000000000000000e+00 0.000000000000000000e+00 1.034200000000000053e+01
1.060599999999999987e+01 0.000000000000000000e+00 0.000000000000000000e+00 0.000000000000000000e+00 1.060599999999999987e+01 0.000000000000000000e+00 0.000000000000000000e+00 0.000000000000000000e+00 1.060599999999999987e+01
1.012400000000000055e+01 0.000000000000000000e+00 0.000000000000000000e+00 0.000000000000000000e+00 1.012400000000000055e+01 0.000000000000000000e+00 0.000000000000000000e+00 0.000000000000000000e+00 1.012400000000000055e+01
1.091000000000000014e+01 0.000000000000000000e+00 0.000000000000000000e+00 0.000000000000000000e+00 1.091000000000000014e+01 0.000000000000000000e+00 0.000000000000000000e+00 0.000000000000000000e+00 1.091000000000000014e+01
1.103299999999999947e+01 0.000000000000000000e+00 0.000000000000000000e+00 0.000000000000000000e+00 1.103299999999999947e+01 0.000000000000000000e+00 0.000000000000000000e+00 0.000000000000000000e+00 1.103299999999999947e+01
1.132499999999999929e+01 0.000000000000000000e+00 0.000000000000000000e+00 0.000000000000000000e+00 1.132499999999999929e+01 0.000000000000000000e+00 0.000000000000000000e+00 0.000000000000000000e+00 1.132499999999999929e+01
1.105000000000000071e+01 0.000000000000000000e+00 0.000000000000000000e+00 0.000000000000000000e+00 1.105000000000000071e+01 0.000000000000000000e+00 0.000000000000000000e+00 0.000000000000000000e+00 1.105000000000000071e+01
1.087700000000000067e+01 0.000000000000000000e+00 0.000000000000000000e+00 0.000000000000000000e+00 1.087700000000000067e+01 0.000000000000000000e+00 0.000000000000000000e+00 0.000000000000000000e+00 1.087700000000000067e+01
1.115399999999999991e+01 0.000000000000000000e+00 0.000000000000000000e+00 0.000000000000000000e+00 1.115399999999999991e+01 0.000000000000000000e+00 0.000000000000000000e+00 0.000000000000000000e+00 1.115399999999999991e+01
1.047799999999999976e+01 0.000000000000000000e+00 0.000000000000000000e+00 0.000000000000000000e+00 1.047799999999999976e+01 0.000000000000000000e+00 0.000000000000000000e+00 0.000000000000000000e+00 1.047799999999999976e+01
1.017500000000000071e+01 0.000000000000000000e+00 0.000000000000000000e+00 0.000000000000000000e+00 1.017500000000000071e+01 0.000000000000000000e+00 0.000000000000000000e+00 0.000000000000000000e+00 1.017500000000000071e+01
1.021499999999999986e+01 0.000000000000000000e+00 0.000000000000000000e+00 0.000000000000000000e+00 1.021499999999999986e+01 0.000000000000000000e+00 0.000000000000000000e+00 0.000000000000000000e+00 1.021499999999999986e+01
1.017999999999999972e+01 0.000000000000000000e+00 0.000000000000000000e+00 0.000000000000000000e+00 1.017999999999999972e+01 0.000000000000000000e+00 0.000000000000000000e+00 0.000000000000000000e+00 1.017999999999999972e+01
1.095299999999999940e+01 0.000000000000000000e+00 0.000000000000000000e+00 0.000000000000000000e+00 1.095299999999999940e+01 0.000000000000000000e+00 0.000000000000000000e+00 0.000000000000000000e+00 1.095299999999999940e+01
1.019299999999999962e+01 0.000000000000000000e+00 0.000000000000000000e+00 0.000000000000000000e+00 1.019299999999999962e+01 0.000000000000000000e+00 0.000000000000000000e+00 0.000000000000000000e+00 1.019299999999999962e+01
1.013499999999999979e+01 0.000000000000000000e+00 0.000000000000000000e+00 0.000000000000000000e+00 1.013499999999999979e+01 0.000000000000000000e+00 0.000000000000000000e+00 0.000000000000000000e+00 1.013499999999999979e+01
1.032699999999999996e+01 0.000000000000000000e+00 0.000000000000000000e+00 0.000000000000000000e+00 1.032699999999999996e+01 0.000000000000000000e+00 0.000000000000000000e+00 0.000000000000000000e+00 1.032699999999999996e+01
1.126299999999999990e+01 0.000000000000000000e+00 0.000000000000000000e+00 0.000000000000000000e+00 1.126299999999999990e+01 0.000000000000000000e+00 0.000000000000000000e+00 0.000000000000000000e+00 1.126299999999999990e+01
1.001999999999999957e+01 0.000000000000000000e+00 0.000000000000000000e+00 0.000000000000000000e+00 1.001999999999999957e+01 0.000000000000000000e+00 0.000000000000000000e+00 0.000000000000000000e+00 1.001999999999999957e+01
1.018299999999999983e+01 0.000000000000000000e+00 0.000000000000000000e+00 0.000000000000000000e+00 1.018299999999999983e+01 0.000000000000000000e+00 0.000000000000000000e+00 0.000000000000000000e+00 1.018299999999999983e+01
1.101999999999999957e+01 0.000000000000000000e+00 0.000000000000000000e+00 0.000000000000000000e+00 1.101999999999999957e+01 0.000000000000000000e+00 0.000000000000000000e+00 0.000000000000000000e+00 1.101999999999999957e+01
1.074900000000000055e+01 0.000000000000000000e+00 0.000000000000000000e+00 0.000000000000000000e+00 1.074900000000000055e+01 0.000000000000000000e+00 0.000000000000000000e+00 0.000000000000000000e+00 1.074900000000000055e+01
1.010899999999999999e+01 0.000000000000000000e+00 0.000000000000000000e+00 0.000000000000000000e+00 1.010899999999999999e+01 0.000000000000000000e+00 0.000000000000000000e+00 0.000000000000000000e+00 1.010899999999999999e+01
1.057300000000000040e+01 0.000000000000000000e+00 0.000000000000000000e+00 0.000000000000000000e+00 1.057300000000000040e+01 0.000000000000000000e+00 0.000000000000000000e+00 0.000000000000000000e+00 1.057300000000000040e+01
1.060299999999999976e+01 0.000000000000000000e+00 0.000000000000000000e+00 0.000000000000000000e+00 1.060299999999999976e+01 0.000000000000000000e+00 0.000000000000000000e+00 0.000000000000000000e+00 1.060299999999999976e+01
1.025099999999999945e+01 0.000000000000000000e+00 0.000000000000000000e+00 0.000000000000000000e+00 1.025099999999999945e+01 0.000000000000000000e+00 0.000000000000000000e+00 0.000000000000000000e+00 1.025099999999999945e+01
9.993000000000000327e+00 0.000000000000000000e+00 0.000000000000000000e+00 0.000000000000000000e+00 9.993000000000000327e+00 0.000000000000000000e+00 0.000000000000000000e+00 0.000000000000000000e+00 9.993000000000000327e+00
1.022300000000000075e+01 0.000000000000000000e+00 0.000000000000000000e+00 0.000000000000000000e+00 1.022300000000000075e+01 0.000000000000000000e+00 0.000000000000000000e+00 0.000000000000000000e+00 1.022300000000000075e+01
1.000799999999999912e+01 0.000000000000000000e+00 0.000000000000000000e+00 0.000000000000000000e+00 1.000799999999999912e+01 0.000000000000000000e+00 0.000000000000000000e+00 0.000000000000000000e+00 1.000799999999999912e+01
1.096299999999999919e+01 0.000000000000000000e+00 0.000000000000000000e+00 0.000000000000000000e+00 1.096299999999999919e+01 0.000000000000000000e+00 0.000000000000000000e+00 0.000000000000000000e+00 1.096299999999999919e+01
1.046199999999999974e+01 0.000000000000000000e+00 0.000000000000000000e+00 0.000000000000000000e+00 1.046199999999999974e+01 0.000000000000000000e+00 0.000000000000000000e+00 0.000000000000000000e+00 1.046199999999999974e+01
1.006300000000000061e+01 0.000000000000000000e+00 0.000000000000000000e+00 0.000000000000000000e+00 1.006300000000000061e+01 0.000000000000000000e+00 0.000000000000000000e+00 0.000000000000000000e+00 1.006300000000000061e+01
1.026200000000000045e+01 0.000000000000000000e+00 0.000000000000000000e+00 0.000000000000000000e+00 1.026200000000000045e+01 0.000000000000000000e+00 0.000000000000000000e+00 0.000000000000000000e+00 1.026200000000000045e+01
1.007900000000000063e+01 0.000000000000000000e+00 0.000000000000000000e+00 0.000000000000000000e+00 1.007900000000000063e+01 0.000000000000000000e+00 0.000000000000000000e+00 0.000000000000000000e+00 1.007900000000000063e+01
1.019400000000000084e+01 0.000000000000000000e+00 0.000000000000000000e+00 0.000000000000000000e+00 1.019400000000000084e+01 0.000000000000000000e+00 0.000000000000000000e+00 0.000000000000000000e+00 1.019400000000000084e+01
1.028299999999999947e+01 0.000000000000000000e+00 0.000000000000000000e+00 0.000000000000000000e+00 1.028299999999999947e+01 0.000000000000000000e+00 0.000000000000000000e+00 0.000000000000000000e+00 1.028299999999999947e+01
1.041799999999999926e+01 0.000000000000000000e+00 0.000000000000000000e+00 0.000000000000000000e+00 1.041799999999999926e+01 0.000000000000000000e+00 0.000000000000000000e+00 0.000000000000000000e+00 1.041799999999999926e+01
1.052100000000000080e+01 0.000000000000000000e+00 0.000000000000000000e+00 0.000000000000000000e+00 1.052100000000000080e+01 0.000000000000000000e+00 0.000000000000000000e+00 0.000000000000000000e+00 1.052100000000000080e+01
1.035100000000000087e+01 0.000000000000000000e+00 0.000000000000000000e+00 0.000000000000000000e+00 1.035100000000000087e+01 0.000000000000000000e+00 0.000000000000000000e+00 0.000000000000000000e+00 1.035100000000000087e+01
