3.567652999999999963e+00 7.754813000000000400e+00 1.422112999999999960e+00 8.405912999999999968e+00 8.003612999999999644e+00 9.667712999999999113e+00 3.969453000000000120e+00 9.047613000000000127e+00 2.914543000000000106e+00 4.785492999999999775e+00 1.011711299999999980e+01 5.695142999999999844e+00 6.700512999999999941e+00 3.117382999999999793e+00 4.657982999999999763e+00 4.611852999999999980e+00 4.787823000000000384e+00 2.718822999999999990e+00 9.450412999999999286e+00 6.512353000000000058e+00 6.420302999999999649e+00 5.193172999999999817e+00 4.841299999999999770e-02 8.032413000000000025e+00 9.407113000000000724e+00 1.164962999999999971e+00 3.905263000000000151e+00 6.231229999999999825e-01 8.759612999999999872e+00 3.447512999999999828e+00 2.702363000000000071e+00 4.794622999999999635e+00 1.402703000000000033e+00 8.356013000000000801e+00 5.585130000000000372e-01 5.921382999999999619e+00 6.531852999999999909e+00 7.176313000000000386e+00 4.713953000000000060e+00 4.332423000000000357e+00 7.716413000000000189e+00 7.670112999999999737e+00 6.971982999999999819e+00 2.686573000000000100e+00 9.116013000000000588e+00 2.988862999999999825e+00 3.059593000000000007e+00 4.086562999999999946e+00 3.687653000000000070e+00 1.162242999999999915e+00 1.015111300000000050e+01 6.010082999999999842e+00 5.066773000000000415e+00 3.972713000000000161e+00 8.712913000000000352e+00 5.170082999999999984e+00 8.254213000000000022e+00 8.158212999999999937e+00 5.763412999999999897e+00 4.645902999999999672e+00 4.250333000000000361e+00 4.188222999999999807e+00 5.734143000000000434e+00 1.191022999999999943e+00 6.279823000000000377e+00 6.923202999999999996e+00 9.221629999999999550e-01 4.939433000000000185e+00 5.204272999999999705e+00 4.284272999999999776e+00 8.342129999999999823e-01 4.026342999999999783e+00 1.778129999999999988e-01 4.791872999999999827e+00 9.656613000000000113e+00 7.726512999999999742e+00 8.033312999999999704e+00 7.554212999999999845e+00 3.872129999999999739e-01 8.106612999999999403e+00 3.258730000000000238e-01 1.448353000000000002e+00 2.753423000000000176e+00 5.726342999999999961e+00 5.413713000000000442e+00 6.966323000000000043e+00 2.739093000000000000e+00 2.129703000000000124e+00 1.296613000000000016e+00 1.460642999999999914e+00 7.588713000000000264e+00 3.545723000000000180e+00 7.016372999999999749e+00 2.390683000000000114e+00 5.484742999999999924e+00 9.279612999999999445e+00 3.250792999999999822e+00 5.734903000000000084e+00 7.027652999999999928e+00 2.661753000000000036e+00 9.656712999999999880e+00 4.833993000000000428e+00 1.091172999999999949e+00 9.349812999999999263e+00 7.035472999999999644e+00 1.733262999999999998e+00 4.117532999999999888e+00 7.244913000000000380e+00 5.439953000000000038e+00 8.448112999999999317e+00 9.484512999999999749e+00 9.557513000000000147e+00 2.976703000000000099e+00 2.518863000000000074e+00 1.286602999999999941e+00 6.581222999999999601e+00 3.574342999999999826e+00 6.537493000000000443e+00 1.016911299999999940e+01 7.288430000000000186e-01 5.475312999999999874e+00 1.916973000000000038e+00 5.593033000000000143e+00 8.727513000000000076e+00 2.898133000000000070e+00 5.114862999999999715e+00 5.850113000000000341e+00 9.396012999999999948e+00 3.863623000000000030e+00 5.382222999999999757e+00 5.829143000000000185e+00 7.533212999999999937e+00 4.295143000000000377e+00 2.687202999999999786e+00 2.557373000000000118e+00 8.568913000000000224e+00 6.086583000000000077e+00 5.615329999999999488e-01 2.052122999999999919e+00 8.978312999999999988e+00 1.840622999999999898e+00 9.289512999999999465e+00 9.816212999999999411e+00 9.978612999999999289e+00 9.219312999999999647e+00 8.776913000000000409e+00 6.272332999999999714e+00 7.161613000000000007e+00 1.467792999999999903e+00 3.376632999999999996e+00 9.871513000000000204e+00 1.484453000000000022e+00 6.406992999999999938e+00 7.758912999999999727e+00 9.500412999999999997e+00 4.599842999999999904e+00 2.881902999999999881e+00 5.399663000000000324e+00 4.609753000000000434e+00 4.575072999999999723e+00 8.461229999999999585e-01 1.857412999999999981e+00 7.158330000000000526e-01 1.278029999999999999e-01 5.167913000000000423e+00 1.010961299999999952e+01 2.768142999999999798e+00 5.084729999999999528e-01 3.954112999999999989e+00 9.514412999999999343e+00 6.478230000000000377e-01 2.814203000000000010e+00 7.696113000000000426e+00 6.212963000000000235e+00 6.312903000000000375e+00 2.175043000000000060e+00 1.450663000000000036e+00 4.433173000000000030e+00 2.057342999999999922e+00 7.773613000000000106e+00 6.424163000000000068e+00 1.703732999999999942e+00 7.448612999999999928e+00 8.351812999999999931e+00 4.336793000000000120e+00 9.873013000000000261e+00 3.415922999999999821e+00 1.994742999999999933e+00 5.759002999999999872e+00 2.206299999999999928e-02 6.978429999999999911e-01 1.779832999999999998e+00 6.662329999999999641e-01 3.073033000000000126e+00 3.924352999999999980e+00 6.169312999999999825e+00 4.630932999999999744e+00 9.661213000000000051e+00 1.019029100000000021e+01 6.656043000000000376e+00 8.894113000000000824e+00 6.012303000000000175e+00 4.441622999999999877e+00 5.907912999999999748e+00 2.179642999999999997e+00 1.424573000000000089e+00 7.460713000000000150e+00 1.841663000000000050e+00 7.830313000000000301e+00 8.622512999999999650e+00 9.263913000000000508e+00 2.395952999999999999e+00 8.460812999999999917e+00 6.830883000000000038e+00 1.003501299999999929e+01 6.685262999999999955e+00 7.713212999999999653e+00 4.449622999999999884e+00 2.944662999999999808e+00 1.153043000000000040e+00 2.032582999999999807e+00 9.080913000000000679e+00 1.917472999999999983e+00 3.185582999999999831e+00 1.967892999999999892e+00 7.612713000000000285e+00 6.672152999999999778e+00 2.745293000000000205e+00 7.373013000000000261e+00 6.037812999999999874e+00 6.737293000000000198e+00 3.237833000000000183e+00 6.306702999999999726e+00 2.754522999999999833e+00 9.960312999999999306e+00 6.806352999999999653e+00 2.242353000000000041e+00 3.457552999999999876e+00 9.405013000000000289e+00 6.940852999999999717e+00 6.790722999999999843e+00 7.781312999999999924e+00 8.619229999999999947e-01 8.088112999999999886e+00 1.269082999999999961e+00 1.011501299999999937e+01 9.883713000000000193e+00 3.702892999999999990e+00 6.798333000000000403e+00 7.969913000000000025e+00 3.581182999999999783e+00 1.305803000000000047e+00 2.880012999999999934e+00 3.335843000000000114e+00 9.980712999999999724e+00 5.391930000000000334e-01 4.815373000000000125e+00 1.523563000000000001e+00 8.931513000000000702e+00 8.649013000000000062e+00 1.528642999999999974e+00 8.358712999999999838e+00 8.427329999999999544e-01 1.680812999999999890e+00 1.368583000000000105e+00 1.010221300000000078e+01 9.940412999999999499e+00 1.655982999999999983e+00 6.784502999999999950e+00 9.594530000000000003e-01 6.815633000000000052e+00 6.297082999999999764e+00 9.048012999999999195e+00 1.456623000000000001e+00 5.632129999999999637e-01 3.333632999999999846e+00 3.688733000000000040e+00 7.112892999999999688e+00 9.723212999999999440e+00 8.589630000000000321e-01 7.848112999999999673e+00 5.296863000000000099e+00 5.011702999999999797e+00 2.877803000000000111e+00 9.557513000000000147e+00 7.513812999999999853e+00 9.938712999999999909e+00 8.699013000000000773e+00 2.661122999999999905e+00 1.013861299999999943e+01 8.675713000000000008e+00 5.415193000000000367e+00 3.884552999999999923e+00 1.065403000000000100e+00 7.176912999999999876e+00 9.271912999999999627e+00 2.629862999999999840e+00 5.292602999999999724e+00 6.075802999999999621e+00 7.182330000000000103e-01 3.798483000000000054e+00 4.085973000000000077e+00 8.121413000000000437e+00 4.250302999999999720e+00 7.518712999999999980e+00 4.539633000000000251e+00 9.151013000000000730e+00 7.928912999999999656e+00 4.241382999999999903e+00 9.790412999999999144e+00 4.985013000000000361e+00 3.391713000000000200e+00 1.002721299999999971e+01 1.691930000000000101e-01 8.102413000000000309e+00 5.843123000000000289e+00 7.804813000000000223e+00 6.349923000000000428e+00 5.076952999999999605e+00 4.116303000000000267e+00 1.000281299999999973e+01 4.344129999999999936e-01 4.341713000000000378e+00 4.170602999999999838e+00 4.459633000000000180e+00 1.854252999999999929e+00 6.487853000000000314e+00 8.449412999999999840e+00 5.811783000000000143e+00 5.920062999999999853e+00 8.397913000000000849e+00 9.064413000000000054e+00 3.009129999999999860e-01 8.221313000000000315e+00 4.865783000000000413e+00 8.976330000000000142e-01 1.420393000000000017e+00 9.555512999999999479e+00 2.802363000000000159e+00 5.480542999999999942e+00 2.748712999999999962e+00 4.654862999999999751e+00 7.512312999999999796e+00 1.011541300000000021e+01 1.642643000000000075e+00 2.086253000000000135e+00 8.160299999999999498e-02 7.499113000000000362e+00 3.849012999999999796e+00 2.394052999999999987e+00 9.781712999999999880e+00 2.522733000000000114e+00 8.432112999999999303e+00 7.325112999999999985e+00 5.544222999999999679e+00 7.197612999999999595e+00 7.621213000000000015e+00 8.340412999999999855e+00 6.837283000000000222e+00 3.944952999999999932e+00 2.352152999999999938e+00 5.618572999999999595e+00 4.935129999999999795e-01 8.760512999999999550e+00 3.157373000000000207e+00 3.378829999999999889e-01 5.126129999999999853e-01 6.102522999999999698e+00 1.348773000000000000e+00 3.902953000000000117e+00 9.929313000000000500e+00 8.103113000000000454e+00 9.726212999999999553e+00 4.333533000000000079e+00 2.223482999999999876e+00 2.885702999999999907e+00 3.565952999999999928e+00 7.333912999999999904e+00 8.876613000000000753e+00 1.006821300000000008e+01 8.768312999999999136e+00 4.622372999999999621e+00 7.950212999999999752e+00 3.340653000000000095e+00 4.449753000000000291e+00 6.089072999999999958e+00 9.908713000000000548e+00 5.161583000000000254e+00 5.814932999999999907e+00 3.338413000000000075e+00 5.399853000000000236e+00 1.295952999999999911e+00 8.371112999999999360e+00 4.490072999999999759e+00 1.173130000000000006e-01 1.000491300000000017e+01 8.699430000000000218e-01 2.793283000000000182e+00 2.702892999999999990e+00 4.793293000000000248e+00 3.665833000000000119e+00 3.248593000000000064e+00 1.988672999999999913e+00 6.561763000000000012e+00 2.468353000000000019e+00 5.908852999999999689e+00 7.072953000000000046e+00 1.494002999999999970e+00 9.570313000000000514e+00 9.777412999999999244e+00 1.943132999999999999e+00 7.619913000000000380e+00 1.855553000000000008e+00 1.067752999999999952e+00 8.045913000000000537e+00 5.661683000000000021e+00 9.273512999999999451e+00 8.512112999999999374e+00 8.544313000000000713e+00 5.215073000000000292e+00 1.678002999999999911e+00 2.512112999999999818e+00 4.481042999999999665e+00 1.683502999999999972e+00 4.059383000000000408e+00 5.901182999999999623e+00 6.394463000000000008e+00 2.242283000000000026e+00 2.781893000000000171e+00 6.667853000000000030e+00 3.985952999999999857e+00 3.633153000000000077e+00 6.587832999999999828e+00 1.899923000000000028e+00 6.207173000000000052e+00 7.376013000000000375e+00 6.770802999999999905e+00 7.844712999999999603e+00 2.343703000000000092e+00 1.181092999999999948e+00 2.714332999999999885e+00 4.583522999999999570e+00 8.643712999999999980e+00 6.764242999999999562e+00 2.548223000000000127e+00 4.308932999999999680e+00 3.981163000000000007e+00 5.224313000000000429e+00 7.062903000000000375e+00 5.279353000000000407e+00 8.749812999999999619e+00 9.829012999999999778e+00 6.812162999999999968e+00 6.278082999999999636e+00 8.945313000000000514e+00 4.413929999999999798e-01 6.041892999999999958e+00 5.312752999999999837e+00 8.559912999999999883e+00 5.751703000000000010e+00 8.416529999999999845e-01 1.287072999999999912e+00 6.050963000000000314e+00 2.212473000000000134e+00 9.935413000000000494e+00 1.703122999999999942e+00 7.064273000000000025e+00 6.037223000000000006e+00 3.499642999999999837e+00 9.903112999999999388e+00 3.781143000000000143e+00 8.712813000000000585e+00 3.705930000000000057e-01 4.677502999999999744e+00 2.756543000000000188e+00 6.704462999999999617e+00 8.780113000000000056e+00 7.790212999999999610e+00 7.136713000000000306e+00 2.593130000000000157e-01 6.153432999999999709e+00 5.595683000000000185e+00 6.490533000000000108e+00 5.062612999999999808e+00 4.997123000000000204e+00 1.547163000000000066e+00 2.217003000000000057e+00 8.995513000000000758e+00 9.187813000000000230e+00 2.983930000000000193e-01 8.443213000000000079e+00 6.428702999999999612e+00 3.419883000000000006e+00 5.287053000000000225e+00 5.806453000000000308e+00 9.362913000000000707e+00 4.208953000000000166e+00 9.001113000000000142e+00 3.473492999999999942e+00 6.483262999999999998e+00 4.068843000000000210e+00 3.294452999999999854e+00 8.191413000000000721e+00 5.080392999999999937e+00 8.751312999999999676e+00 6.286863000000000312e+00 2.018082999999999849e+00 6.725572999999999801e+00 8.778012999999999622e+00 6.876933000000000185e+00 8.883412999999999116e+00 7.706012999999999558e+00 7.043033000000000321e+00 7.047443000000000346e+00 4.164530000000000176e-01 9.751312999999999676e+00 8.538612999999999786e+00 1.853973000000000093e+00 6.093482999999999983e+00 1.609703000000000106e+00 4.495612999999999637e+00 2.169722999999999846e+00 8.791912999999999201e+00 3.169303000000000203e+00 7.481313000000000102e+00 1.828273000000000037e+00 5.043330000000000313e-01 4.540543000000000440e+00 5.927382999999999846e+00 9.053513000000000588e+00 2.537783000000000122e+00 7.485300000000000287e-02 1.301023000000000041e+00 5.008352999999999611e+00 6.510893000000000264e+00 7.270513000000000225e+00 3.364902999999999977e+00 4.642913000000000068e+00 1.474493000000000054e+00 2.986333000000000126e+00 7.612013000000000140e+00 8.562312999999999619e+00 8.752613000000000198e+00 4.149042999999999815e+00 8.111513000000000417e+00 8.932413000000000380e+00 2.873729999999999896e-01 2.643343000000000220e+00 6.234643000000000157e+00 1.690303000000000111e+00 2.440012999999999987e+00 8.684229999999999450e-01 7.749412999999999663e+00 4.795772999999999620e+00 7.479813000000000045e+00 6.563342999999999705e+00 3.364429999999999921e-01 3.579213000000000200e+00 9.436113000000000639e+00 7.780912999999999968e+00 9.005513000000000545e+00 6.670613000000000348e+00 3.613662999999999847e+00 1.263443000000000094e+00 9.796713000000000449e+00 8.051913000000000764e+00 2.930772999999999850e+00 9.232813000000000159e+00 4.006442999999999977e+00 5.666922999999999710e+00 7.280912999999999968e+00 6.362130000000000285e-01 7.704012999999999778e+00 5.269162999999999819e+00 8.211429999999999563e-01 4.862472999999999601e+00 2.578523000000000120e+00 9.581113000000000213e+00 7.883729999999999905e-01 2.363530000000000075e-01 9.071329999999999671e-01 3.118663000000000185e+00 7.656412999999999691e+00 2.279472999999999860e+00 4.421413000000000260e+00 2.978029999999999844e-01 9.306513000000000702e+00 1.017401300000000042e+01 9.561213000000000406e+00 7.652813000000000088e+00 9.312329999999999774e-01 5.805132999999999655e+00 9.327213000000000420e+00 8.565113000000000198e+00 7.045453000000000188e+00 5.466332999999999664e+00 2.446572999999999887e+00 8.130513000000000545e+00 1.942112999999999978e+00 9.038812999999999320e+00 6.500683000000000433e+00 5.600513000000000297e+00 3.286029999999999784e-01 7.180513000000000368e+00 3.850753000000000092e+00 5.746802999999999884e+00 3.689913000000000221e+00 6.925622999999999863e+00 6.774453000000000280e+00 3.459252999999999911e+00 4.831300000000000178e-02 5.879913000000000167e+00 1.834332999999999991e+00 3.214392999999999834e+00 9.264412999999999343e+00 9.722813000000000372e+00 5.963133000000000017e+00 1.003791299999999964e+01 7.126013000000000375e+00 7.210912999999999684e+00 5.883092999999999684e+00 4.174300000000000233e-02 9.360613000000000739e+00 4.436593000000000231e+00 9.554012999999999423e+00 5.953122999999999720e+00 7.760412999999999784e+00 5.495072999999999652e+00 1.697629999999999972e-01 6.729783000000000293e+00 6.717323000000000377e+00 8.618612999999999857e+00 4.625232999999999706e+00 9.554712999999999568e+00 1.362613000000000074e+00 7.730712999999999724e+00 6.852752999999999872e+00 5.670392999999999795e+00 4.639592999999999634e+00 4.091752999999999751e+00 6.684772999999999854e+00 1.828623000000000109e+00 3.495782999999999863e+00 3.250513000000000208e+00 5.325002999999999709e+00 5.001413000000000331e+00 9.161013000000000517e+00 4.869672999999999696e+00 5.132929999999999993e-01 3.540630000000000166e-01 6.454683000000000170e+00 4.030429999999999846e-01 9.213713000000000264e+00 8.132612999999999204e+00 7.721313000000000315e+00 8.086213000000000761e+00 1.993762999999999952e+00 1.230162999999999895e+00 2.139562999999999882e+00 7.809612999999999694e+00 4.272013000000000282e+00 9.832312999999999192e+00 1.916873000000000049e+00 3.364012999999999920e+00 5.022173000000000442e+00 2.532052999999999887e+00 6.059872999999999621e+00 7.312813000000000230e+00 9.473112999999999673e+00 4.234713000000000171e+00 5.364023000000000430e+00 7.819012999999999991e+00 3.502183000000000046e+00 1.340352999999999906e+00 1.161372999999999989e+00 1.156382999999999939e+00 5.298103000000000229e+00 9.088412999999999187e+00 8.243213000000000790e+00 9.222813000000000372e+00 3.408173000000000119e+00 1.120243000000000100e+00 8.120713000000000292e+00 1.552592999999999890e+00 2.769613000000000103e+00 7.493013000000000368e+00 4.117830000000000101e-01 9.764212999999999809e+00 2.046453000000000078e+00 1.585552999999999990e+00 8.431713000000000235e+00 1.135072999999999999e+00 2.915163000000000171e+00 5.285429999999999851e-01 4.000663000000000302e+00 7.720112999999999559e+00 1.602622999999999909e+00 5.857042999999999999e+00 4.627373000000000403e+00 7.124113000000000362e+00 1.522529999999999994e-01 5.503182999999999936e+00 2.208502999999999883e+00 1.764032999999999962e+00 6.176252999999999993e+00 3.390642999999999851e+00 1.645882999999999985e+00 4.459703000000000195e+00 4.925012999999999863e+00 2.693602999999999970e+00 1.376743000000000050e+00 2.041323000000000221e+00 5.438712999999999909e+00 7.420012999999999970e+00 3.270392999999999883e+00 3.772912999999999961e+00 9.196630000000000082e-01 3.250903000000000098e+00 1.674633000000000038e+00 8.047112999999999516e+00 4.497423000000000393e+00 8.350013000000000574e+00 6.550030000000000019e-01 2.940983000000000125e+00 8.285712999999999440e+00 2.499493000000000187e+00 1.055102999999999902e+00 6.324530000000000429e-01 1.001243000000000105e+00 1.076252999999999904e+00 7.283513000000000126e+00 9.810112999999999417e+00 5.100130000000000496e-01 4.020902999999999672e+00 4.565230000000000121e-01 9.564113000000000753e+00 2.666672999999999849e+00 3.973152999999999935e+00 7.250613000000000419e+00 3.896732999999999780e+00 9.446113000000000426e+00 1.479182999999999915e+00 7.874513000000000318e+00 3.975903000000000187e+00 5.084673000000000442e+00 4.807233000000000089e+00 4.936243000000000158e+00 8.208413000000000181e+00 3.240502999999999911e+00 2.523662999999999990e+00 3.009132999999999836e+00 2.877502999999999922e+00 2.692123000000000044e+00 9.193113000000000312e+00 7.787330000000000085e-01 3.219330000000000247e-01 2.445472999999999786e+00 8.493530000000000246e-01 9.618712999999999624e+00 3.306992999999999849e+00 4.510222999999999871e+00 9.313012999999999764e+00 8.623713000000000406e+00 4.730113000000000234e+00 3.922053000000000011e+00 8.882430000000000048e-01 7.172513000000000361e+00 7.856313000000000102e+00 6.070830000000000393e-01 6.677130000000000010e-01 9.140112999999999488e+00 1.783333000000000057e+00 9.136412999999999229e+00 5.596453000000000344e+00 5.153572999999999737e+00 3.776783000000000001e+00 6.590003000000000277e+00 1.015401300000000084e+01 2.408692999999999973e+00 9.486212999999999340e+00 9.949113000000000540e+00 7.110553000000000345e+00 5.044402999999999970e+00 6.726053000000000281e+00 2.923452999999999857e+00 7.826312999999999853e+00 4.765552999999999706e+00 3.215603000000000211e+00 8.260813000000000628e+00 7.345300000000000440e-02 6.126432999999999574e+00 3.332063000000000219e+00 2.904729999999999812e-01 5.605673000000000350e+00 6.172893000000000185e+00