-7.726552299496797787e+04
-7.722122111273444898e+04
-7.755707280941471981e+04
-7.721033946433974779e+04
-7.733426409235187748e+04
-7.761969781980736298e+04
-7.746033565465104766e+04
-7.769438727869706054e+04
-7.706087425429641735e+04
-7.729651184542049305e+04
-7.753462091630193754e+04
-7.720556522593347472e+04
-7.765848362478209310e+04
-7.737985353194475465e+04
-7.737466895309647953e+04
-7.707173667894666141e+04
-7.766665498743238277e+04
-7.743647820704920741e+04
-7.757897428761248011e+04
-7.750396294350245444e+04
-7.732133374134761107e+04
-7.715181770353461616e+04
-7.718216510561139148e+04
-7.757606918364585727e+04
-7.754570208115817513e+04
-7.752466572394387913e+04
-7.707149118889503006e+04
-7.721746128223130654e+04
-7.708880473011131107e+04
-7.718583738292443741e+04
-7.765100678088185668e+04
-7.741823436509547173e+04
-7.769938525786467653e+04
-7.731765373283770168e+04
-7.730581014930306992e+04
-7.750905345521739218e+04
-7.768087527240795316e+04
-7.739630696316389367e+04
-7.756158012046903605e+04
-7.718123604886213434e+04
-7.771759477343806066e+04
-7.728749032571645512e+04
-7.728552603649641969e+04
-7.717950511464141891e+04
-7.734930222074796620e+04
-7.748848038127954351e+04
-7.715485689703124808e+04
-7.706681374139220861e+04
-7.716208735342015279e+04
-7.740087067183459294e+04
-7.737806424871849595e+04
-7.734785212296391546e+04
-7.748443759274994954e+04
-7.720034658987942385e+04
-7.759664496682045865e+04
-7.763766973005274485e+04
-7.771747114636040351e+04
-7.764295769889805524e+04
-7.758983771875991079e+04
-7.767595477961105644e+04
-7.742399161738647672e+04
-7.723928257231782482e+04
-7.726686402501371049e+04
-7.724312806305856793e+04
-7.761018233134815819e+04
-7.725300807805566001e+04
-7.720930037091897975e+04
-7.733777367858575599e+04
-7.770544865006768669e+04
-7.710626047141966410e+04
-7.724529313093924429e+04
-7.763302325120694877e+04
-7.754529892553508398e+04
-7.719468473277856538e+04
-7.746900883356246050e+04
-7.748250228016660549e+04
-7.729242801643442363e+04
-7.707963118908215256e+04
-7.727305722427486035e+04
-7.709589055879053194e+04
-7.761230235089198686e+04
-7.741548160246609768e+04
-7.715991374822995567e+04
-7.729992232363177754e+04
-7.717393838214676362e+04
-7.725300661379727535e+04
-7.731193096985181910e+04
-7.739246488981285074e+04
-7.744661724767211126e+04
-7.735117090395848209e+04
