1.136104760643052325e+00 6.347956528024233380e-01 -3.050349843606209088e+00 -6.771247560869105842e-01 4.215606802742939974e-01 -4.343719741653458422e-01 -6.755054751820811498e-01 -8.399794722257843960e-01 6.231238719266468662e-01 6.167907300962627293e-01 -8.685763123907188632e-01 -3.120877266032689334e+00 -6.284367999383009273e-01 2.962029357391570139e-01 -2.277961593754006309e+00 -1.765257355760623703e+00 -5.428164864868444128e-02 1.344949317050053161e-01 -7.510295799052358889e-01 1.663514167272640121e+00 2.639294177496653293e-01 -4.354081288249938453e+00 -1.058306772096094583e+00 4.746349387786342744e-01 1.766428236237059801e+00 -7.518178801996479033e-01 1.614335130379631389e+00 -1.246381955449407108e+00 -5.665734816609069996e-02 -8.193957328356860081e-01 1.437780547023714606e+00 3.853374332819456960e-01 7.671807370788750191e-01 -8.489197128772184575e-01 3.758716591009035879e-01 -2.286416924309138565e+00 -4.063469473907482254e-01 1.620409619210609664e+00 -1.146212282226198864e+00 7.048042265680674046e-01 3.144341155422136769e-01 1.404524867545425160e+00 2.364459681897284060e+00 -1.420261048634530621e+00 1.906750830849156808e-01 -1.962295919695734581e+00 6.992408730878036938e-01 -1.202659314136311330e+00 -6.182588301227117666e-01 -1.392204140178097571e+00 -4.224519789698611305e+00 -1.960233380569259110e+00 -1.667219127234309317e+00 -6.995308935483700585e-01 5.866383723901693464e-02 -1.061326790118979124e+00 8.274890520357849888e-02 -4.497291746171505622e-01 -8.894865819092919734e-01 7.175692405983904454e-01 -9.710394098233713356e-01 -1.085920936551556248e-01 1.673654598978971397e-01 -1.634917327107705765e+00 9.230729052814543589e-01 1.424123360122677262e+00 -6.255160265056456392e-01 -1.150401638063495158e+00 1.934333113622783262e+00 -3.376915967528112184e+00 5.234936161912654429e-01 -1.038093785812500114e+00 -1.893301389100723986e+00 2.026163155942680982e-01 1.211844838049607631e+00 -2.218577333349646352e+00 -1.057863513874448547e+00 -5.468757444934255751e-01 1.249802551377932280e+00 1.878324711948244075e-01 2.208308860695298304e+00 1.465743353096665924e+00 -1.336650309580048823e+00 7.132832112742387709e-01 -2.834795735834897551e-02 2.841544367970490370e+00 -1.485354186970112567e+00 1.455082530067474123e+00 -5.353602867027771467e-02 -8.220609385929839030e-01 1.580210417960991931e+00 1.658489717059528079e+00 1.343177312604818763e+00 7.972929855723368542e-01 1.507648738545148137e-01 3.732337584614355830e+00 9.335028432276776256e-01 -4.130837524508217118e-02 -1.160681937793362151e+00 3.155920890797130340e+00 1.223866803204897824e+00 9.684888752765454800e-01 8.534911346758639050e-01 1.801306796164901858e+00 -6.919893331322921615e-01 -1.022391543287929361e+00 2.867037372142553497e-01 1.475953718814765114e+00 3.575792870375502086e-01 9.294420425590720347e-01 5.102478058300385921e-01 9.753670910221787782e-01 8.354826124249797870e-01 2.180665899882049619e+00 1.553876662985690604e+00 7.076828339053921058e-01 1.214480733228443965e+00 -3.257577690211753696e-01 -3.071769191592797488e-01 -1.094955793807146804e+00 -1.770430929969416534e-01 -3.767160094488649080e-01 -1.243509004539504748e-01 7.148654682904852509e-01 -2.085350984049281653e+00 -8.070780907924068881e-01 2.661922972510285312e+00 -7.579787581039864053e-01 7.160492042837903748e-01 3.254222400308923735e+00 1.038165262486292484e+00 1.431787305059348814e+00 8.312788584087901222e-01 2.129887636690527497e+00 -9.081085694251687934e-02 1.295802161838879751e+00 7.727703158135516004e-01 2.767912081109789479e+00 -8.413339294831108095e-01 1.597386931160108992e+00 -2.463958811360600354e+00 2.351583596201211712e+00 -4.723008911358838602e-01 -8.573395622057921051e-01 1.712447406683111684e+00 -2.945357294674395998e+00 2.171293199643140159e+00 1.438088050987223143e+00 -9.888139616672380061e-01 1.747246262406365824e+00 2.385553528196747486e+00 -2.913677187343581207e-02 -1.538676814060363496e+00 8.635456915295098845e-01 -3.700352544423406442e-01 -1.672451322600025311e-02 -1.110383442491394090e+00 -8.394333698691859302e-01 -6.339677575160546086e-01 -1.634429845908030032e-01 4.335985862705018512e-01 -3.621486519534965476e-01 -1.313411134625472876e+00 -7.702542340519350494e-01 -4.730166863151543111e-01 -8.691157298785455732e-01 2.179910509710822897e+00 -7.047286361288771506e-01 -2.035516315795949716e+00 3.722921689838765702e-01 -7.722077583953607105e-01 -1.764078761974066323e+00 1.913278348094601400e+00 -2.076850916295445160e+00 -7.858772865925923723e-01 -7.714143158942009526e-01 1.652884197483933892e+00 -2.804054081235525242e+00 -2.448758448214598538e+00 -1.754922034418556764e-01 9.119076317703197487e-01 -2.120016142397097347e+00 1.771409491913491285e+00 2.671763613563229889e+00 8.363079366079748111e-02 2.604142566390511782e+00 -9.894783347790320205e-01 3.365445761156842797e-01 -2.405681668069005852e+00 5.368684959418578151e-01 -8.417962138697229202e-01 9.561480933029019580e-01 8.396971650753393135e-01 -1.197901230232726766e+00 2.632398478248078599e-01 2.305861664904636399e+00 4.249520684684926053e+00 1.366675140558800683e-01 -4.387999283957322999e-02 2.799229662864896273e+00 -8.962074461284478266e-01 -2.491828543491419801e+00 1.584175573584091445e+00 1.025782828637993027e-01 -6.073146715017253561e-01 -2.703551193015070186e-01 -3.482571346909694832e+00 -3.559661767808178223e-01 -1.760126461867835834e+00 3.278773866425495620e-01 -6.209255785420340068e-01 -7.020408046618895614e-01 1.275903364387565908e+00 -3.218246493461136115e+00 -4.078782965601931432e-01 1.022204881182990244e+00 -2.158836203797000142e+00 -6.730726971697761352e-01 1.921132554680935467e+00 1.827991763861066543e+00 5.054552691412450560e-01 2.259027988509223484e-01 1.907398748899358579e-02 -9.438731315756281326e-01 1.276164074269670712e+00 5.837834192038837688e-01 1.186313267326936760e+00 -8.425598315717465203e-01 4.563842185899366632e-01 1.042378786695302484e+00 -1.263167660935704095e+00 -6.798501256631559464e-01 -8.780323163789405250e-01 8.959410798189204606e-01 -3.117231441448617524e+00 3.358916187028699429e+00 -3.543263784710652953e+00 -8.311801280392354663e-01 1.427644743303456032e+00 2.140883217378990455e+00 1.243897241148951061e+00 1.460595489921610923e+00 1.747819618458726909e+00 -3.849414833623780119e+00 7.992501094604858025e-01 8.255530111953013339e-01 -1.265426632359939241e+00 -1.057582235165352991e+00 3.999490137553436964e-01 -8.017363664229661957e-01 8.688802168095040024e-01 -1.908754748818709546e+00 -8.947177488336587325e-01 9.118716363230860988e-01 -1.827899204139609157e+00 -1.431004146971684432e-01 -1.120308929955674548e+00 -6.011589358041343756e-01 -3.688839143515457164e-01 1.115618208960484026e+00 8.079779769732425843e-01 1.531654102305121556e+00 6.917476494151534316e-01 -1.409383224480588392e+00 6.743232818508004822e-02 -6.370515389026097930e-01 3.044028528851344007e+00 1.134702995083647581e+00 -1.977137356810751700e-01 -1.000533565065767627e+00 1.466565591955612424e+00 1.486717900199584497e+00 1.374373538280681428e+00 1.365527400012729098e+00 2.918269177969217143e-01 -8.493187481208347434e-01 -7.678852194033006784e-01 -7.524251748165433629e-01 -1.897288141992163668e+00 8.727044759677182739e-01 3.252654027250895918e+00 1.228272645946269392e+00 -1.204378868072719655e+00 4.071085082100725505e-01 -8.775386645311676892e-01 -4.746940741562319932e-01 -1.035095879278630449e+00 5.452384658649793714e-01 3.701411839013418525e+00 -1.796808907922747833e+00 -1.128769916938229256e+00 -2.111390090577943690e-01 -5.958994867426556930e-01 4.327794327356040416e-01 4.041686057683160804e+00 -4.778447042305065118e-01 -6.101799091015062126e-01 9.806388813798517790e-01 1.533092377532434269e-01 -5.099063633019958186e-02 -1.808381444208294830e+00 6.335090726741657852e-01 1.179191825202140498e+00 -6.157319497269251318e-01 8.902239743569025088e-02 -8.364416339834132574e-02 -1.348167310032721389e+00 -6.759096526324450682e-01 -2.212416969665982336e+00 5.766933445402479264e-02 -3.900552022846286881e+00 3.932847138104119122e-01 -4.147961072977833785e-01 -8.780580274126785767e-01 3.150263949154060050e+00 1.117817530786446634e+00 8.892973487009792066e-01 -2.797062222720769209e-01 -1.325373964403165017e+00 -2.176742396133605872e+00 6.366926128716250410e-01 -1.542991125521627205e-01 -6.030512678872631538e-01 -2.744385456798020817e-01 7.997072516403503917e-01 1.069769265157242133e-01 -6.851954495773200371e-01 1.719655752101943325e+00 -7.771442768730879580e-01 -6.256692642667250892e-01 -2.264283323805303394e-01 2.316594993048970152e-01 -2.819903905093753549e-01 1.792331588507584117e+00 -6.858310263313273092e-01 -9.169516223690724610e-01 -1.935382638019975121e-01 2.169934114399740821e+00 3.942288229692772483e-01 -5.796742817918506541e-01 1.307308363657382344e-01 1.556789723108224388e+00 -2.446064446099514011e+00 -6.994069663657522806e-01 -1.288012232836891036e+00 -9.203012558444804148e-01 1.940571124628336364e+00 -1.854228331128837670e-01 -3.365733724734710774e-01 -6.993329185885862609e-01 -1.383361601454868584e-01 4.259618950295926965e-01 -8.296791178896015806e-01 -4.964353242852226900e-01 -1.638461335998174118e+00 -2.523293192359508996e+00 -3.007009268254462242e+00 5.591532773240731613e-01 2.652147123262361017e+00 -1.814940843135574911e+00 -8.647618234253249270e-01 9.327824200623341389e-01 -6.064338114858558448e-01 1.762441997566294605e+00 2.066601469806063629e-01 1.118523555772896527e+00 4.068051180119622995e-02 -7.467795460283175313e-01 1.495966159035201581e+00 -1.270372406809812338e+00 1.661183719174612827e+00 7.681274173411141437e-02 1.526203877373305540e+00 1.960561967580433107e+00 -4.536917591368762326e-02 4.903085392116208752e+00 -3.544039743708870538e-01 1.488598405207193887e+00 -5.126368750849887718e-02 -5.743017041819239443e-01 1.674163677446986798e+00 7.636768374010381999e-01 -5.253160142626264184e-01 1.157627981205943124e+00 -8.442217927925813048e-02 1.078134607094290986e+00 1.962767460054492874e+00 -1.003347380598071902e-02 1.130571231961924772e+00 -3.630233413212687887e-01 1.630408640231381379e-01 1.407002382756434633e+00 -9.569795881339940857e-01 1.364129233998047974e+00 1.013795316267911861e+00 -2.169816872085894577e+00 -6.409709288856553500e-02 1.015303011286317753e-01 -2.000267002761603186e-01 -2.058459299641862472e+00 -2.717990509562422941e-01 -5.729529033520199821e-01 2.316555398057013271e+00 -2.032126573107910783e+00 -5.594227289576491069e-01 -1.085888026428371456e+00 -1.367570398753563454e+00 -1.413829690655266313e+00 4.919307511742965766e-01 -4.946257817307306848e-01 -6.513160204205425963e-01 -5.944236734060852345e-02 -4.094118054564721554e+00 -7.133063512046030619e-01 -2.364748159695825969e+00 1.943437904890141565e+00 -8.677818414482095788e-01 1.374925297064702567e+00 7.182320710481604475e-01 2.149775635507671367e+00 -1.577170345331791568e+00 1.220258002509409190e+00 -2.887538836224689653e+00 -1.644781622311688896e+00 1.691188495547049087e+00 -2.010051593760998401e+00 8.828037700200687121e-01 1.548405869226884279e-01 -3.010495170208682847e+00 1.602160441683936343e+00 -7.443200285409248274e-01 -1.510934608656885718e-02 -1.292196960688114515e+00 4.083956025590049776e-01 -4.699190209703804078e-01 1.201226181115746305e+00 6.754334842876142941e-01 8.013435018274469579e-01 1.711475529607809076e-01 -2.700319316074183185e+00 -7.233043437840251944e-01 4.733262471613618461e-01 -6.666634506795269255e-01 -7.502392227281247106e-01 1.196027924314564395e+00 1.674234125679429530e+00 3.191880856803999578e+00 7.190260277699948022e-01 -1.334043724979673939e+00 5.485541607758528393e-01 7.020824565365454406e-01 2.259367888375241495e+00 5.113569798255028775e-01 2.170844284994071505e-01 -9.049563966888699573e-01 -2.046214676934399623e+00 -7.779042950303880488e-01 -1.177828111972668346e+00 -2.741490394399103803e+00 2.894059668601363100e-01 1.080974133660333791e+00 -7.561450471777807492e-01 1.630611757397912642e+00 -4.250224138568002297e-01 -3.357825010756851358e-01 2.884305930842453236e+00 -6.260914394407056660e-01 -2.538661705666158674e+00 1.280882563181298339e+00 8.745968080508471909e-02 -2.015486906293245895e+00 6.604177263638523199e-01 -6.109095882389952159e-01 -3.055087872903477497e-01 1.000242516163851514e+00 1.966611259598347872e-01 -8.073310873643904095e-01 -1.202931336873261259e+00 -4.451340986674660605e-01 -1.996027253298180204e+00 -3.152620622506499881e+00 -9.110535112295380378e-01 1.120292474894081902e+00 1.359379377625259622e+00 -9.279214920237971453e-02 -1.937078023584670072e+00 -6.745248563553075671e-01 1.167312299173759671e+00 1.513202321832591402e+00 -1.259458072987962085e+00 -4.649994717749203477e-02 -4.653284701626338560e+00 -2.044577398305953420e-01 -1.503310258712170722e+00 8.354229628267072494e-01 -1.708924995060983332e-01 1.114862304568582152e+00 -6.870589853026620730e-01 -1.703880490241555412e+00 -1.851950333539636118e+00 -3.378784645460201630e-01 -8.681546514374128831e-01 3.588560969729873706e-01 2.549572954163960015e-01 1.785162323860034705e+00 -1.799957481114323188e-01 -1.958532852797817414e-01 3.054885784178295705e+00 -2.339164138464329579e+00 9.060537436088147434e-01 6.165927551364787096e-01 1.412505572417750876e+00 -1.440946089497557203e+00 -5.134632277093331698e-01 3.218635758511932399e-01 2.363354621667217881e+00 2.001186943548754815e+00 1.088988262876519064e+00 5.996126742351211014e-01 -3.457866643032043719e-01 8.884221451125320357e-01 -3.718129153149972166e-01 1.610901164713562261e+00 3.016757863806624473e-01 -4.135023280800789180e-01 4.244038063850600340e-01 -1.038003282973741781e+00 2.834153474212117718e+00 -1.840205019107368667e+00 -2.446420286806449962e-01 -3.543880335299693929e-01 3.703376161991013826e-01 -1.050061757796940443e+00 -2.643821890537943808e+00 1.540253414649187524e+00 -2.501289175465713832e+00 -1.189773972468093577e+00 2.664141320501214327e-01 -1.999253473811644533e+00 -1.779145941965304401e+00 -2.421870363351902533e+00 1.326857491049857174e+00 -1.096167297716888811e+00 -8.283220895289013230e-02 4.664562589465246489e-01 -1.975892942777824832e-02 -1.815773880628691384e+00 4.775078896885366908e-01 3.413869922099299625e-01 -1.826645534134536397e-01 1.602080223258673108e-01 1.049151072981934663e+00 -1.818736820156677370e+00 -1.484336544254755808e+00 -1.410755165240856757e+00 4.441812477571298046e-01 -1.026659060667789669e+00 -5.538665745668320817e-01 1.636911989105112264e+00 -2.064705538178211786e+00 -7.388235237483803397e-01 -8.445462660383570297e-01 1.062575317917304196e-01 8.424323048444051776e-02 4.703319401722153709e-02 -2.500837689713272027e+00 1.314253428090734976e+00 -1.073511763228169213e+00 5.201228996681922512e-01 -1.898888396732026362e-01 4.049328405351492188e-01 8.797544414187226380e-02 -1.970253484637696451e+00 -7.606095110760754396e-01 5.575581647909575445e-01 2.600017488137561283e+00 4.151869150106034245e-02 1.179138860472639938e-01 2.389438465394583488e+00 -7.980967124869917662e-01 3.957216055881149774e-01 -1.391410697676937813e+00 -1.134008797172717076e+00 6.538948371044803753e-01 -2.182403965762749753e-01 -1.179481845662706974e+00 -3.354194612793022778e-01 4.917152927115707173e-01 1.268071269290246716e+00 1.725333776792678797e-01 1.652982927853488215e+00 3.226476595360722843e+00 -6.616549413073327113e-01 2.579864665672914281e+00 5.955189634433308982e-02 6.644841834598801400e-01 -9.736681059127609839e-01 -2.720892771050786418e+00 3.537336877213331121e+00 -1.493263415168645913e+00 -1.818123354891684862e+00 -2.371194430074658577e+00 -2.502161807950787686e+00 7.222471060767119422e-01 1.128611536970402195e-02 -5.815265046623478984e-01 9.112967376087009741e-02 -7.575339572203162453e-01 1.117409239570684498e+00 -4.449422943557794219e-01 1.781188426485464382e-01 1.448918566839086930e+00 -3.415597703566503607e-01 -1.022460963079022456e+00 9.869900209338527963e-02 1.328187265714794840e+00 -1.219285611213431819e+00 -1.517470867653801347e+00 -3.636815437849658106e-01 -9.944822161651534209e-02 3.538170943147797232e+00 3.887220337632374401e-01 5.688118842581514345e-01 5.527553436886686322e-01 9.656483202691531487e-01 1.128981775856231717e+00 1.563356835345625973e+00 1.476191802987180779e+00 -7.917574000085102481e-01 2.633227401975796855e+00 -1.385973328261991044e+00 2.005872008116522942e-02 -3.474815356472240602e-01 3.334176001924488708e-01 -1.940751101864503503e-01 -2.071143581026247737e+00 2.195595268732451366e+00 3.485649471868828009e+00 2.477504412375214571e+00 -1.873571770251407198e+00 -7.961817546941734047e-01 4.498690426406862231e-01 8.654009997240557084e-01 1.436469798523743346e+00 1.362734667528089805e+00 -1.125749898915344493e+00 -3.889914853968134412e-01 4.373133164249917160e-01 -2.973743304362677642e-01 -2.071099872268892916e+00 2.469592098852632311e+00 -6.529851807308242329e-01 -2.392966019223460084e+00 3.800167919601702415e-01 -8.530910709908980927e-01 -1.337005636066310066e+00 -2.029016052246267243e+00 -2.175224416701705188e+00 -1.211300278355033289e+00 5.870440925025576240e-01 -1.241654210565633853e+00 -1.128402763376448181e+00 1.958912347655792363e+00 1.637746569260252749e-01 1.549624572226073083e+00 -1.465885278002900582e+00 3.115889325487485872e-01 1.797134409609872918e-01 2.231878165323072594e+00 -2.810409334554924587e+00 -1.702539916942447995e+00 -1.287297466098970000e+00 -2.403756425862692225e+00 -7.164122440801733160e-02 4.392607729644551817e+00 -2.150419954013149670e+00 1.204134099031532346e+00 -1.286631036104476822e+00 -1.440450380767085703e-01 -7.162461508022246459e-01 -9.342129819795256251e-01 -1.147894812274024255e-02 -1.978044956301709068e+00 -3.813438926775992499e+00 5.501029934482398048e-02 2.548437554914082970e+00 3.941395542601382918e+00 -9.031874775676842493e-01 -4.107383919532264227e-01 -3.386847625640490023e-01 -9.710831185807261567e-01 2.639543574523913971e+00 1.057389916632991644e+00 -6.553135719461521402e-01 1.773193837654919891e+00 -5.077168116688538513e-01 3.014397076688786203e+00 2.672403818303310086e+00 -2.062582835232789069e+00 -6.035279504527687466e-01 1.519989520518791881e+00 1.620528404186480032e+00 9.481468196035856000e-01 -1.366801638844792333e+00 1.041607455683157601e+00 1.975574125959471461e+00 -9.373816097774168021e-01 6.782200461241563172e-01 -6.742908859482903416e-01 1.566598482479333754e+00 -4.258693353081353661e-01 2.016659329431706560e+00 -5.093371210150329231e-01 -1.300800386797578589e+00 6.073383256527643548e-01 -6.324091546508471551e-02 2.019879893517748659e+00 3.576035068313315080e+00 8.936142312656166764e-01 1.700724717960533594e+00 3.912843953855827395e-01 -2.239775566446086774e+00 1.236749573769741595e+00 1.551326642659539568e+00 8.273332431713316115e-01 -1.572908484379353655e-01 2.696984594998343976e-01 -2.093631479574994181e+00 2.575973043606306079e-01 -6.833010606114922059e-01 -8.166204838539886657e-01 -5.687352653776116540e-01 -1.723590568705231363e-01 8.280840053564860748e-01 8.131767479950990918e-01 -1.521880824160571022e+00 1.514101693792752501e+00 -1.338141035316187333e+00 -3.405259296900387866e+00 -2.202812355902754149e+00 -9.785202921998270575e-01 1.388555230269977459e-01 -3.190676037763029882e+00 1.733958285949808165e+00 2.240773668775802197e+00 7.890973364579599580e-02 -1.568010532452233541e+00 -4.383654119255573356e-01 -1.176013941432103804e+00 1.243425186569518504e+00 1.290333939183447298e-01 1.773047798983286905e+00 7.390996602507282631e-02 2.490370727878465831e-03 3.890465070090131094e-01 1.253783647841949511e+00 7.754010687856405237e-01 1.403064480829097294e+00 6.031242872230795360e-01 -5.370258474683353711e-01 -3.966369183891935712e-01 -4.068681614666882496e+00 -1.548816731546020176e+00 5.347488783204836782e-01 1.107249781699386482e+00 -1.522392473731960516e+00 -5.591080259046938838e-01 1.730558773068948453e+00 2.614571475895385522e+00 1.300229601848591265e+00 -3.461959839603159228e-01 -3.451684167859364383e+00 -9.085585125155866137e-01 1.158264072180625437e+00 -9.884709764771709706e-02 1.010978415411558917e-01 7.034842220959500736e-01 3.179375009993757467e-02 2.662110148835899470e-01 -1.626805495963314918e+00 3.687846697613164082e-01 -2.627132858538502869e-01 9.730484699996712061e-01 -1.924228163143010484e+00 3.108104024471569637e-01 9.436232203276931907e-01 2.835028677800564889e+00 1.756471381311618618e+00 2.558965194788511255e+00 1.276058144810669592e+00 2.090185172612730735e+00 1.148215685975076727e+00 1.408095615910981147e-01 -1.818152665470146090e+00 8.660494319949322284e-01