5.451030000000000264e+00 6.029740000000000322e+00 2.578670000000000129e-01 1.255460000000000065e+01 1.239739999999999931e+01 1.713940000000000019e+00 6.962970000000000326e+00 9.656489999999999796e+00 4.391070000000000029e+00 9.536369999999999791e+00 9.452640000000000597e+00 5.592069999999999652e+00 2.977500000000000036e+00 1.417249999999999943e+01 4.412530000000000285e+00 1.733630000000000004e+00 7.923619999999999663e+00 1.341200000000000081e+01 1.259340000000000082e+01 6.519129999999999647e+00 4.462240000000000428e+00 8.257889999999999731e+00 3.970829999999999860e+00 7.624349999999999739e+00 3.830760000000000165e+00 4.451979999999999826e+00 5.153400000000000425e+00 9.372469999999999857e+00 1.419449999999999967e+01 1.293769999999999953e+01 1.209340000000000082e+01 8.252879999999999328e+00 3.259510000000000129e+00 1.528140000000000054e+00 1.071620000000000061e+01 1.079950000000000010e+01 3.855669999999999931e+00 4.257009999999999961e-01 4.932909999999999684e+00 3.301079999999999792e+00 9.462619999999999365e+00 1.380390000000000050e+01 4.526729999999999698e+00 4.748520000000000074e+00 1.146640000000000015e+01 4.093379999999999797e+00 8.208610000000000184e+00 1.067329999999999934e+01 1.542500000000000071e+01 9.403019999999999712e+00 7.933049999999999713e+00 1.113480000000000025e+01 9.749809999999999865e-01 7.155369999999999786e-01 5.423540000000000028e+00 1.108000000000000007e+01 1.319929999999999914e+01 1.530429999999999957e+01 1.321299999999999919e+01 4.145220000000000127e+00 7.558230000000000004e+00 9.318830000000000169e+00 1.302469999999999928e+01 1.195319999999999938e+00 6.875939999999999941e+00 1.547749999999999915e+01 1.320180000000000042e+01 1.369340000000000046e+01 1.128480000000000061e+01 9.126950000000000340e-01 8.912770000000000081e+00 6.244970000000000354e+00 9.892440000000000566e+00 1.168299999999999983e+01 1.232489999999999952e+01 5.955000000000000071e+00 5.143869999999999720e+00 3.854830000000000201e+00 1.188809999999999967e+01 1.159689999999999976e+01 1.041329999999999956e+01 3.524049999999999905e+00 9.065789999999999793e+00 2.363459999999999894e+00 1.015429999999999922e+01 5.418739999999999668e+00 8.810069999999999624e+00 4.255419999999999980e+00 1.307520000000000060e+01 6.190150000000000041e+00 1.249039999999999928e+01 4.456660000000000288e+00 9.504429999999999268e+00 3.548420000000000130e+00 6.725880000000000081e+00 1.252309999999999945e+01 5.901200000000000223e+00 1.338889999999999958e+01 2.337149999999999839e+00 9.791079999999999117e+00 8.953229999999999578e+00 1.167270000000000074e+01 3.936020000000000074e+00 4.054310000000000080e+00 9.556050000000000377e-01 1.363429999999999964e+01 9.676869999999999195e+00 1.293149999999999977e+01 5.852299999999999863e-02 4.058910000000000018e+00 1.137299999999999933e+01 1.480020000000000024e+01 4.344140000000000335e+00 8.269830000000000680e+00 6.703940000000000232e+00 3.986850000000000005e+00 1.061969999999999992e+01 2.826200000000000045e+00 2.227549999999999919e+00 1.522359999999999935e+01 1.286020000000000074e+01 9.527789999999999537e+00 8.766260000000000829e+00 7.322530000000000427e-01 1.226290000000000013e+01 1.450709999999999944e+01 1.437090000000000067e+01 1.490939999999999976e+01 1.246349999999999980e+01 6.552179999999999893e+00 6.613529999999999909e+00 2.921219999999999928e+00 4.225710000000000299e+00 5.974479999999999791e+00 9.254699999999999704e+00 4.017210000000000392e+00 1.293590000000000018e+01 9.098869999999999791e+00 1.316419999999999924e+01 5.953100000000000058e+00 1.173780000000000001e+01 1.090320000000000000e+01 8.689109999999999445e+00 8.675530000000000186e-01 5.291220000000000034e+00 1.375799999999999912e+01 1.276449999999999996e+01 5.842249999999999943e+00 1.425650000000000084e+01 5.087010000000000254e+00 1.810680000000000067e+00 7.852879999999999860e-01 1.045079999999999920e+01 1.524719999999999942e+01 5.564429999999999765e+00 1.315150000000000041e+01 1.118590000000000018e+01 3.005520000000000191e+00 2.254340000000000011e+00 1.322869999999999990e+01 4.309639999999999915e+00 3.020000000000000018e+00 8.474819999999999354e+00 1.381390000000000029e+01 9.202329999999999899e+00 2.142059999999999853e+00 8.184550000000000436e-01 1.438799999999999990e+01 3.940030000000000143e+00 2.401619999999999866e+00 9.632189999999999586e+00 1.267559999999999931e+01 1.582840000000000025e+01 6.384610000000000340e+00 1.072840000000000060e+01 7.977619999999999933e+00 9.653650000000000730e+00 4.171690000000000120e-01 1.371340000000000003e+01 1.268539999999999957e+01 8.864279999999999937e-01 7.909049999999999692e+00 8.590249999999999275e+00 6.054520000000000124e+00 7.643699999999999939e-01 5.801820000000000199e+00 1.046170000000000044e+00 1.386860000000000070e+01 2.792060000000000208e+00 1.410410000000000075e+01 1.042469999999999963e+01 1.590859999999999941e+00 1.336260000000000048e+01 1.461490000000000045e+01 8.583589999999999165e+00 2.300749999999999851e+00 1.470960000000000001e+01 1.313889999999999958e+01 1.756219999999999892e+00 1.446630000000000038e+01 9.533149999999999125e+00 6.240619999999999834e+00 4.835090000000000110e+00 8.406790000000000873e+00 9.607530000000000570e+00 1.548520000000000074e+01 1.510909999999999975e+01 1.629839999999999955e+00 4.118660000000000210e+00 2.243590000000000195e+00 9.160019999999999385e+00 1.193379999999999974e+01 3.456609999999999960e+00 8.702109999999999568e-01 4.631120000000000125e+00 6.855220000000000091e+00 6.488500000000000156e+00 1.329440000000000066e-01 1.241339999999999932e+01 4.058939999999999770e+00 1.070459999999999923e+01 1.062359999999999971e+01 3.134710000000000107e+00 3.772349999999999870e+00 7.335289999999999644e+00 5.260000000000000231e-01 1.274140000000000050e+01 1.022860000000000014e+01 4.297830000000000261e+00 1.162449999999999939e+01 1.193940000000000001e+00 8.685819999999999652e+00 2.919020000000000170e+00 3.250939999999999941e+00 1.545599999999999952e+01 5.525470000000000326e+00 1.572300000000000075e+01 1.700520000000000032e+00 1.203919999999999924e+01 8.999310000000000365e-01 1.529460000000000086e+01 4.125399999999999956e+00 1.842850000000000099e+00 1.589010000000000034e+01 1.089250000000000007e+01 3.482169999999999987e+00 7.643169999999999575e+00 1.916609999999999925e+00 1.227610000000000090e+00 9.679999999999999716e+00 1.196209999999999951e+01 5.586470000000000269e+00 1.577590000000000003e+01 1.396419999999999995e+00 1.169599999999999973e+01 9.016500000000000625e+00 1.414809999999999945e+01 6.783529999999999838e+00 1.190070000000000050e+01 1.463230000000000075e+01 1.796000000000000041e+00 3.737229999999999830e+00 5.397659999999999680e-01 2.820240000000000080e+00 1.848100000000000076e+00 8.728830000000000311e+00 4.077350000000000030e+00 6.524309999999999832e+00 1.952669999999999906e+00 1.080059999999999931e+01 1.107339999999999947e+01 7.898670000000000080e+00 5.429269999999999818e+00 1.583820000000000050e+01 1.070969999999999978e+01 1.232300000000000040e+01 1.287650000000000006e+01 9.445289999999999964e+00 1.548390000000000022e+01 3.590349999999999930e+00 7.535160000000000302e+00 1.546000000000000085e+01 8.303710000000000591e+00 8.121990000000000265e+00 1.228320000000000078e+00 7.567079999999999806e+00 7.565100000000000158e+00 1.500520000000000032e+01 8.244229999999999947e+00 2.276279999999999859e+00 5.678729999999999833e+00 1.211619999999999919e+01 8.131629999999999470e+00 1.190840000000000032e+01 8.652649999999999508e+00 1.453389999999999915e+01 1.068679999999999986e+01 1.382319999999999938e-01 5.747539999999999871e+00 9.528069999999999595e+00 1.358769999999999989e+01 1.386129999999999995e+01 6.059379999999999988e+00 1.019969999999999999e+01 5.002910000000000412e-01 5.855979999999999741e+00 5.774390000000000356e+00 8.946900000000000686e-02 1.539290000000000047e+00 1.028739999999999988e+01 1.269009999999999927e+01 1.684900000000000064e+00 1.703340000000000076e+00 5.037029999999999674e+00 4.558060000000000223e+00 7.424800000000000288e+00 8.066189999999999749e-01 1.486819999999999986e+01 7.153769999999999740e+00 1.668139999999999956e+00 1.585880000000000045e+01 9.351380000000000692e+00 1.263439999999999941e+01 1.282970000000000077e+01 1.654209999999999958e+00 1.413209999999999944e+01 1.215440000000000076e+01 3.864370000000000083e+00 8.650909999999999656e+00 1.496059999999999945e+01 1.478209999999999980e+01 2.202220000000000011e-01 1.197700000000000031e+01 1.296889999999999965e+01 1.429739999999999966e+01 1.237439999999999962e+01 6.826880000000000059e+00 8.176930000000000032e-01 1.998110000000000053e+00 7.877939999999999721e+00 3.045570000000000110e+00 4.228670000000000151e+00 1.162720000000000004e-01 6.553079999999999572e+00 2.895429999999999948e-01 1.198179999999999978e+01 6.784010000000000318e+00 5.749559999999999782e+00 7.541920000000000179e+00 2.888799999999999812e+00 1.052619999999999933e+01 5.000750000000000028e+00 1.241440000000000055e+01 1.721959999999999935e+00 7.196230000000000127e-01 7.564540000000000042e+00 1.433840000000000003e+01 3.045560000000000045e+00 1.730069999999999997e+00 1.027369999999999983e+01 1.122979999999999912e+01 1.182080000000000020e+01 1.045469999999999899e+00 1.315460000000000029e+01 4.921780000000000044e+00 1.072330000000000005e+01 4.514540000000000219e+00 7.006770000000000387e+00 4.490540000000000087e-01 1.105710000000000015e+01 2.135330000000000172e+00 1.183580000000000076e+00 9.113730000000000331e+00 1.546979999999999933e+01 6.747169999999999668e+00 6.341219999999999857e+00 1.532070000000000043e+01 5.567499999999999893e+00 1.248930000000000096e+00 1.032409999999999961e+01 4.029770000000000074e+00 7.075599999999999667e+00 6.353790000000000049e+00 4.140039999999999942e+00 4.105829999999999758e-01 4.287989999999999746e+00 1.001260000000000083e+01 1.524060000000000059e+01 1.429700000000000060e+01 1.310060000000000002e+01 1.323540000000000028e+01 9.502380000000000493e+00 1.422470000000000034e+01 1.130219999999999914e+01 8.719849999999999213e+00 4.413850000000000051e+00 2.817689999999999806e+00 1.119030000000000058e+01 1.114830000000000076e+01 4.546100000000000141e-02 3.869860000000000078e+00 7.542229999999999990e+00 1.102770000000000000e-01 8.955130000000000479e+00 8.833780000000000854e+00 8.787409999999999499e+00 1.294130000000000003e+01 1.022240000000000038e+01 1.592389999999999972e+01 1.418849999999999945e+01 3.495060000000000056e+00 4.886420000000000208e+00 5.546870000000000189e+00 8.219810000000000727e+00 1.084900000000000020e+01 8.247560000000000002e+00 1.233360000000000056e+01 1.222099999999999964e+00 7.950669999999999682e-01 1.160270000000000046e+01 1.473889999999999922e+01 4.584120000000000417e+00 5.705869999999999553e-01 1.004519999999999946e+01 8.976580000000000226e+00 1.031509999999999927e+01 1.148049999999999926e+01 8.948840000000000572e+00 1.563969999999999949e+01 7.111959999999999837e+00 7.501540000000000319e+00 1.932080000000000020e+00 6.792469999999999786e+00 6.347739999999999938e+00 1.555199999999999960e+01 4.664889999999999759e+00 1.177970000000000006e+01 9.690329999999999444e+00 2.599680000000000213e+00 8.296620000000000772e+00 3.079369999999999941e+00 4.757139999999999702e+00 1.065390000000000059e+00 5.498829999999999885e+00 8.252930000000000543e-01 1.140809999999999924e+01 9.601820000000000022e+00 1.515639999999999965e+01 1.187790000000000035e+01 4.216260000000000119e+00 8.544499999999999318e+00 1.329950000000000010e+01 7.946259999999999657e+00 4.164869999999999628e+00 7.814470000000000027e+00 1.204170000000000051e+01 6.708510000000000417e+00 1.039949999999999974e+01 1.318190000000000062e+01 1.005489999999999995e+01 2.648019999999999818e+00 3.077220000000000066e+00 6.946609999999999729e+00 1.588359999999999994e+00 6.118219999999999992e+00 9.079789999999999139e+00 1.491039999999999921e+01 1.191910000000000025e+01 1.185079999999999956e+01 8.861430000000000362e+00 2.093090000000000117e+00 1.362710000000000043e+01 3.863449999999999829e+00 8.418039999999999523e+00 1.732469999999999954e+00 1.297470000000000034e+01 2.210319999999999840e+00 4.494239999999999569e+00 9.501440000000000552e+00 1.050329999999999941e+01 1.356770000000000032e+01 1.339530000000000065e+01 7.389210000000000278e+00 1.315409999999999968e+01 1.491409999999999947e+01 9.898759999999999337e+00 1.216949999999999932e+01 5.007579999999999920e+00 4.205519999999999925e+00 9.239269999999999428e+00 4.928679999999999950e+00 7.888359999999999594e+00 2.087870000000000115e+00 1.575569999999999915e+01 9.683740000000000236e+00 9.885630000000000805e+00 8.177440000000000708e+00 6.260559999999999903e+00 6.928119999999999834e-01 9.955560000000000187e+00 1.156949999999999967e+01 6.902860000000000440e+00 8.072329999999999783e-01 1.132300000000000040e+01 1.063010000000000055e+01 1.141460000000000008e+01 1.117689999999999984e+01 1.511940000000000062e+01 5.681199999999999584e+00 8.520429999999999282e+00 5.259559999999999569e+00 2.318389999999999951e+00 1.031020000000000003e+01 1.575849999999999973e+01 1.278749999999999964e+01 1.151529999999999987e+01 1.335280000000000022e+01 1.134130000000000038e+01 2.203930000000000167e+00 4.598559999999999981e+00 9.695240000000000080e+00 1.864919999999999911e+00 1.295449999999999946e+01 1.230080000000000062e+01 1.108960000000000079e+01 2.886219999999999786e+00 1.155799999999999983e+01 6.775560000000000471e-01 1.558559999999999945e+01 2.729179999999999939e+00 1.168449999999999989e+01 4.263259999999999827e+00 1.066300000000000026e+01 1.387720000000000020e+01 9.440659999999999386e+00 1.461009999999999920e+00 5.343350000000000044e+00 8.834539999999999615e-01 4.535790000000000433e+00 5.520509999999999806e+00 3.038279999999999870e+00 3.424339999999999939e+00 1.584029999999999916e+01 3.863490000000000091e+00 1.511539999999999928e+01 5.001579999999999693e+00 3.103759999999999852e+00 1.373269999999999946e+01 9.853239999999999554e+00 1.330629999999999979e+00 1.358999999999999986e+01 1.431550000000000011e+01 9.738099999999999312e+00 1.304759999999999920e+01 6.080440000000000289e+00 1.148789999999999978e+01 7.642109999999999737e-01 5.947110000000000340e+00 1.290489999999999959e+01 1.362170000000000059e+01 2.057929999999999815e+00 8.223839999999999151e+00 9.212650000000000006e+00 4.847949999999999982e+00 1.057939999999999969e+01 1.411979999999999968e+01 2.112849999999999895e+00 1.234560000000000102e+00 5.280319999999999681e+00 3.108270000000000088e+00 1.443290000000000128e-01 5.153769999999999740e+00 1.225689999999999991e+01 1.212049999999999983e+01 8.240700000000000358e+00 8.977069999999999439e+00 1.008960000000000079e+01 1.451399999999999935e+01 1.407779999999999987e+01 6.119880000000000209e+00 5.368369999999999642e+00 2.452420000000000044e+00 5.676459999999999617e+00 1.244420000000000037e+01 1.289499999999999957e+01 6.630160000000000053e+00 9.334310000000000107e-01 1.374140000000000050e+01 3.412739999999999885e+00 1.392300000000000093e+00 3.736460000000000115e+00 2.250449999999999950e-01 1.163649999999999984e+01 1.335979999999999990e+01 6.549590000000000245e+00 5.034110000000000085e+00 9.817869999999999209e+00 8.215930000000000177e+00 2.985730000000000217e+00 1.715850000000000097e+00 1.536350000000000016e+01 1.008210000000000051e+01 2.269229999999999858e+00 3.203530000000000211e+00 3.877209999999999823e+00 2.086910000000000043e+00 1.129010000000000069e+01 4.514499999999999957e+00 8.927699999999999747e+00 1.226670000000000016e+01 1.077399999999999913e+01 9.315030000000000143e+00 7.577300000000000146e+00 7.927990000000000315e+00 1.343810000000000038e+01 7.983229999999999826e+00 1.215530000000000044e+01 4.249620000000000175e+00 4.042740000000000222e+00 5.275070000000000370e+00 1.261379999999999946e+01 1.399520000000000053e+01 9.956780000000000186e+00 8.088390000000000413e+00 6.878110000000000390e+00 4.112479999999999691e+00 7.504959999999999631e+00 1.341380000000000017e+01 1.594519999999999982e+01 7.670350000000000001e+00 3.368479999999999919e+00 3.388020000000000032e+00 6.090360000000000440e+00 1.739989999999999926e+00 1.564499999999999957e+01 1.380719999999999992e+01 5.126979999999999649e+00 4.628890000000000171e+00 5.303379999999999761e-01 1.314380000000000059e+01 7.342489999999999739e+00 3.451179999999999914e+00 8.580849999999999866e-01 6.897770000000000401e+00 9.488110000000000710e+00 1.285609999999999964e+01 1.485950000000000060e+01 5.401690000000000325e+00 6.073920000000000430e-01 3.351739999999999942e+00 2.012729999999999908e+00 5.837790000000000035e+00 4.202189999999999870e+00 1.164869999999999983e+01 1.363419999999999987e+01 9.720140000000000668e+00 5.603749999999999565e-01 2.368240000000000123e+00 8.984990000000000476e-01 1.576849999999999952e+01 1.576079999999999970e+01 9.372070000000000789e+00 6.626759999999999984e+00 3.887290000000000134e+00 3.011039999999999939e+00 8.365859999999999630e+00 5.036430000000000184e+00 4.343799999999999883e+00 4.631149999999999878e+00 2.368650000000000144e+00 1.487190000000000012e+01 3.146650000000000169e+00 8.222939999999999472e+00 1.521870000000000012e+01 9.668749999999999289e+00 3.936580000000000190e+00 7.342439999999999856e+00 9.692310000000000869e+00 9.453189999999999316e+00 1.060759999999999970e+01 6.337839999999999918e+00 8.215569999999999595e+00 1.567719999999999914e+01 1.532980000000000054e+01 2.196919999999999984e+00 6.866100000000000314e+00 1.262149999999999928e+01 1.243629999999999924e+01 3.637620000000000076e+00 2.160670000000000091e+00 9.636110000000000397e+00 8.528100000000000236e+00 1.386060000000000070e+00 5.767229999999999634e+00 9.770270000000000010e+00 4.230179999999999829e+00 3.129690000000000083e+00 5.634280000000000399e+00 4.628910000000000302e+00 1.246250000000000080e+00 8.213960000000000150e+00 5.109960000000000058e+00 1.444570000000000043e+01 4.133589999999999876e+00 2.916370000000000129e+00 3.119839999999999947e+00 1.303850000000000087e+01 5.369690000000000296e+00 1.202919999999999945e+01 6.711219999999999963e+00 1.172899999999999920e+01 1.560599999999999987e+01 5.264899999999999913e+00 1.443720000000000070e+01 1.306150000000000055e+01 9.196659999999999613e+00 1.174849999999999994e+01 4.042580000000000062e+00 5.141689999999999650e+00 1.033350000000000080e+01 5.987660000000000204e-01 1.195950000000000024e+01 1.577590000000000003e+01 1.423530000000000051e+01 6.187669999999999781e+00 1.254790000000000028e+01 1.545369999999999910e+00 7.925229999999999997e+00 7.401460000000000150e+00 6.260010000000000296e-01 1.379720000000000013e+01 9.253949999999999676e+00 1.492479999999999940e+01 1.360379999999999967e+01 5.515419999999999767e+00 7.774469999999999992e+00 8.572699999999999321e+00 1.584479999999999933e+01 3.998839999999999950e+00 1.427590000000000003e+01 1.332649999999999935e+01 2.564060000000000006e+00 6.661769999999999747e+00 1.558890000000000065e+01 1.199109999999999943e+01 1.595960000000000001e+01 1.518599999999999950e+00 8.536229999999999762e+00 9.616749999999999687e+00 1.205269999999999975e+01 9.935069999999999624e+00 6.900179999999999758e+00 9.174160000000000537e+00 2.019670000000000076e+00 4.715370000000000061e+00 7.645179999999999865e+00 6.018519999999999648e+00 1.491159999999999997e+01 1.282520000000000060e+01 2.349279999999999813e+00 9.134460000000000690e+00 1.298399999999999999e+01 1.061580000000000013e+01 1.594200000000000017e+01 1.569139999999999979e+01 8.797520000000000451e+00 2.849089999999999900e+00 7.041419999999999568e+00 6.026010000000000311e+00 1.432910000000000039e+01 1.376509999999999900e+00 1.468890000000000029e+01 1.035239999999999938e+01 1.278700000000000081e+01 9.301299999999999457e+00 1.197860000000000014e+01 2.076249999999999929e+00 4.526290000000000369e+00 1.232879999999999948e-01 1.932940000000000103e+00 4.130320000000000213e+00 1.325820000000000043e+01 7.626940000000000275e+00 2.935810000000000031e+00 1.854330000000000034e+00 1.375060000000000038e+01 5.440080000000000027e+00 1.400159999999999982e+01 3.637910000000000199e+00 1.031750000000000078e+01 1.160309999999999953e+01 4.044920000000000293e+00 5.602899999999999991e+00 1.313419999999999987e+01 5.887179999999999858e+00