-7.781038430402429367e+04
-7.781789123953906528e+04
-7.784885467070592858e+04
-7.784107754993232084e+04
-7.780724836836534087e+04
-7.785669019752620079e+04
-7.786648883712707902e+04
-7.784992144454228401e+04
-7.782323353556949587e+04
-7.781081768052323605e+04
-7.781154189773715916e+04
-7.782935925894632237e+04
-7.784544276442292903e+04
-7.786459596866593347e+04
-7.785134663667861605e+04
-7.784011980213283096e+04
-7.785994505424733507e+04
-7.782733400360647647e+04
-7.782099129345489200e+04
-7.784942355275074078e+04
-7.785465989531764353e+04
-7.782789669452006638e+04
-7.782119171976113284e+04
-7.786535449327365495e+04
-7.784019894926270354e+04
-7.785136261386491242e+04
-7.785571925262897275e+04
-7.785574987008253811e+04
-7.783608851293590851e+04
-7.785659802536426287e+04
-7.783853634900486213e+04
-7.785586031706830545e+04
-7.780939098280790495e+04
-7.786287501051224535e+04
-7.784101913846899697e+04
-7.784594371971086366e+04
-7.784380544341048517e+04
-7.783146699189080391e+04
-7.781277559107448906e+04
-7.784932102654103073e+04
-7.785965145199454855e+04
-7.782230494953898597e+04
-7.782584934962846455e+04
-7.785043592324694328e+04
-7.784115522308433719e+04
-7.786415103109586926e+04
-7.784000699103048828e+04
-7.785507167143929109e+04
-7.786050839189720864e+04
-7.784409381371999916e+04
-7.784886348315753276e+04
-7.783216194034446380e+04
-7.784459184824588010e+04
-7.781186822571282391e+04
-7.780977328017643595e+04
-7.784910348237889411e+04
-7.786402515164716169e+04
-7.782862758446503722e+04
-7.786491733032384946e+04
-7.780469112415712152e+04
-7.785060808363997785e+04
-7.781099159457936184e+04
-7.786561647894766065e+04
-7.780555683451541699e+04
-7.783533684072930191e+04
-7.785536245293826505e+04
-7.783370604366631596e+04
-7.784047251311373839e+04
-7.783928592036482587e+04
-7.783627442704858549e+04
-7.784853590344361146e+04
-7.785429533173100208e+04
-7.783051954386700527e+04
-7.783731360796594527e+04
-7.784495787793386262e+04
-7.781705535896024958e+04
-7.780598554038003203e+04
-7.784488529261238000e+04
-7.785307469802338164e+04
-7.783954688411814277e+04
-7.785850938899208268e+04
-7.783623621525810449e+04
-7.786671892831946025e+04
-7.783405675794091076e+04
-7.784426730651002435e+04
-7.783036297771036334e+04
-7.785927633192687063e+04
-7.781851472982634732e+04
-7.784017421947224648e+04
-7.783234737962644431e+04
-7.784451219356026559e+04
-7.785866489259502850e+04
-7.785040533606315148e+04
-7.785973465163228684e+04
-7.785535057108424371e+04
-7.783610151986082201e+04
-7.786214891902853560e+04
-7.785478879926321679e+04
-7.786603512592309562e+04
-7.785562022764251742e+04
-7.779157574736147944e+04
-7.779814313704406959e+04
-7.781650691650738008e+04
-7.781227273794246139e+04
-7.781764200674624590e+04
-7.780986732881174248e+04
-7.783594722114458273e+04
-7.783509172332119488e+04
-7.785834793179460394e+04
-7.783943321183022636e+04
-7.782915701584139606e+04
-7.783176646508071281e+04
-7.785922831480717286e+04
-7.786338759535398276e+04
-7.783492432823861600e+04
-7.781969493128094473e+04
-7.782912465970712947e+04
-7.784936276931801694e+04
-7.784834701849288831e+04
-7.786312133596475178e+04
-7.784932389169637463e+04
-7.783186014484443876e+04
-7.784030138419786817e+04
-7.783210912475526857e+04
-7.785187697061039216e+04
-7.782420478334551444e+04
-7.784721641041207477e+04
-7.782634511987777660e+04
-7.780804888173991640e+04
-7.783224943483207608e+04
-7.785645970686298097e+04
-7.784297603263336350e+04
-7.786206452247590641e+04
-7.782950627707209787e+04
-7.781376027894097206e+04
-7.785086290142148209e+04
-7.784415204595816613e+04
-7.785927293418535555e+04
-7.786427682531725441e+04
-7.782269589269577409e+04
-7.786028883871814469e+04
-7.781117510836952715e+04
-7.781750943846385053e+04
-7.785469077957422996e+04
-7.784491502185982245e+04
-7.781458955084461195e+04
-7.782433523024976603e+04
-7.781688013114013302e+04
-7.780053490207875439e+04
-7.781427661998530675e+04
-7.786169083273710567e+04
-7.786283369943067373e+04
-7.784069417119424907e+04
-7.784761194581925520e+04
-7.784901967966707889e+04
-7.781024454482241708e+04
-7.786269727194048755e+04
-7.782638680458656745e+04
-7.782941548011606210e+04
-7.784596679320996918e+04
-7.781206597803633485e+04
-7.781000382045193692e+04
-7.783951107964005496e+04
-7.785865305685324711e+04
-7.786367437337501906e+04
-7.783765639662613103e+04
-7.783932149577066593e+04
-7.783502475333663460e+04
-7.781358053527853917e+04
-7.783364073986161384e+04
-7.784994115469607641e+04
-7.785164802865081583e+04
-7.784109109848030494e+04
-7.785833756108627131e+04
-7.784063834785214567e+04
-7.784823335274250712e+04
-7.785888900849730999e+04
-7.781165617231719079e+04
-7.785984524232322292e+04
-7.785732575995051593e+04
