2.345902486186427272e+00 -8.363876408125630046e-01 -1.740241034154065947e+00 -2.274768283363726606e+00 -4.925646310000772132e+00 -7.085765494381305318e-01 5.979751899184051034e+00 -7.155524671119690705e-01 2.674458129898989345e+00 -5.493833930359761197e+00 -4.355022312084754765e-01 2.438077056358415984e+00 1.356729084267529695e+00 5.511741151137716788e-01 2.613146056184942334e-01 -8.467486731883681061e-01 -2.021985627180904022e+00 -1.979133561470182601e+00 -1.980602175717306901e+00 -5.130706202241515079e+00 1.512083377644306559e+00 2.635358846672690269e+00 -1.805654531970025456e+00 -2.362880510205085827e+00 -1.699769810167498285e+00 9.200024936324429081e-01 5.404341021006662249e-01 3.141290284158766433e+00 -3.067484704930670159e+00 4.418519823666546387e+00 -7.851080124631465429e-01 2.204574075934492949e+00 2.088815802955836520e-01 -1.488566009304683781e-02 2.915659508044793569e+00 -1.978536551266782961e+00 -1.229399817665350225e+00 2.014790651499616558e+00 -2.371470052356331237e+00 6.119155581450345771e+00 2.658274062602165255e+00 3.235679088556285610e+00 4.328236557136337481e+00 3.288178962566915553e-01 2.885029439331844969e+00 1.443047709395314904e+00 -1.153941018967890697e+00 1.819217102266906361e+00 -9.444380029868556292e+00 4.855727724853212024e+00 -4.569261557590696299e+00 1.265670372959776913e+00 -8.645539240065181374e+00 5.075507183909053754e-01 1.716140539569261492e+00 1.189961663014382109e+00 1.588103191097933076e+00 -2.647152497848385355e+00 -9.445051087849121174e-02 6.913508253204386556e+00 -3.806955632508577936e-01 -1.590433124975285661e+00 -8.967031548589196599e-02 1.082393382722680319e-01 1.677903604414540117e+00 -1.967296201537132694e+00 -2.282681111106983796e+00 -3.178388220518886698e+00 -5.413158362916828281e+00 2.444436937663888365e+00 -5.765666405659863436e+00 2.460062047087244963e+00 3.612243402906095913e+00 -2.072407535444816151e+00 -6.748391994537905170e+00 2.143472318476423444e-01 6.514147507900971967e-02 7.784488547249623913e-01 2.127075878040922241e+00 -2.815422986133866434e+00 -3.922953532321673542e-01 2.855395416065912961e+00 8.178355873084541816e-01 3.316219415961755845e-01 -4.556098022537432568e-01 1.682033310653563651e+00 -1.966353120819616773e+00 1.465296495330296711e+00 1.613465068997931851e-01 4.066212326986669900e+00 4.132808532354584230e+00 8.317426854574265782e-01 -6.460982232337199038e-01 2.068277829205792118e-01 -5.020406381725470268e+00 -1.838207786006588185e+00 -2.451837087394406645e+00 4.947714604478911760e+00 2.398626560411253550e+00 -9.706018080291475836e-02 -5.622087765735165332e-01 -7.047173232740323590e-01 -1.606607936299963679e+00 -5.999366332602220631e-01 -3.078107989850604298e+00 -2.097126123280685484e+00 -1.495209740422625000e+00 -7.636845507111596210e-02 7.939047855463216008e-01 2.010510278602887224e-01 -1.550901896382185008e+00 4.147043189073380987e+00 8.949979991014046510e-01 -2.357773784684011886e+00 -4.516508172787408459e-01 2.139086016120692602e-01 1.292606794565900774e+00 1.310725360041184340e+00 5.753399157242710116e-01 -2.880134572728773601e-01 -1.672101652541186478e+00 1.150101333189433417e+00 1.188143892929094170e+00 2.183892120395514613e+00 3.904953751822260344e+00 -4.274750922092185768e+00 -2.547192626660480741e+00 5.641319104750635027e+00 -1.835591431213392521e+00 5.510583126178149271e+00 9.989903888208030436e-01 -2.450439435600399563e+00 -1.501622072236922789e-01 1.380983330834088418e+00 4.177364211160796259e+00 -1.820364328592303238e+00 -2.536527175645216237e-01 -1.254579661446482808e+00 -6.901396813651687889e-01 -1.633681140605574456e+00 -2.526028332128574583e+00 2.141971822547464210e+00 1.685115549378094935e+00 3.448955198738396177e+00 -5.721216142091977375e+00 1.378173114846507286e+00 3.377896586354885766e+00 -9.518281254142157977e-01 -4.795445635150714203e+00 -3.287823121859979825e+00 5.475066932613601445e+00 2.932465268137406156e+00 -5.000245845950701540e-01 8.493208050035337964e-01 -8.924438650098555081e-01 8.299809654256877778e-01 -1.333568585076192470e+00 -1.536675981414859615e+00 9.919959592026730277e-01 -9.692524929785689025e+00 1.911956286739785460e+00 3.788150582432485258e+00 -3.381715703306352183e-01 -2.557704325693991532e+00 -4.423412633386918813e+00 2.644237895063827448e+00 -2.364445797939064953e+00 -1.465493441848730871e+00 2.540703161744968686e+00 6.773366150049131562e-02 -9.602335765638959630e-01 -1.700470692947200435e+00 1.310341751417810841e+00 1.026157181289220732e+00 7.703745616898296511e-01 1.870097181152031718e-01 -3.819433711402382414e+00 1.980278216692205717e+00 -1.650594887039887881e+00 -5.820756923429949437e-01 1.879016852976475249e+00 -1.566878732747079672e+00 -1.568988065954958433e+00 -8.245168565356532364e-02 -4.114548556193740936e+00 -1.331272589763374370e+00 2.190207778722956800e+00 4.149836949999369473e+00 1.679432896701285927e+00 1.593638776661759682e+00 -3.231013050153483945e-01 2.310253109467114818e+00 6.890968418367489357e-02 1.667891727876899433e+00 -4.115617106755898646e+00 5.512649264849349251e+00 -4.087923238095847900e+00 1.215179044904772576e+00 4.653189570801507635e+00 -1.681728377793429541e+00 8.506726911574865602e-01 -2.798968438762116318e+00 2.093407279360797624e+00 3.203322266817482333e+00 -4.456529987503698109e+00 -2.559796689619603161e+00 -3.332938272760334275e+00 4.073155848757997077e+00 2.823818152870051001e+00 2.800485389752668475e+00 -3.662071386290655539e+00 3.707880735101940495e-01 2.229086975500457424e+00 2.563230655285672288e+00 -2.479365891217857332e+00 2.220274261576364871e+00 2.956923146091171642e-02 1.033094532412451638e+00 4.821089820201158282e+00 -1.896432478789357390e+00 6.664289146297673661e+00 -3.471419443136103844e+00 -1.423508352195660187e+00 -1.024682396393999800e-01 4.657956910677238049e+00 -2.025377940972317159e+00 -2.186160862012570316e+00 -9.606151283045704092e-01 -7.533729349421995458e+00 -4.449149892379494986e+00 -1.734283787636933249e+00 2.636297813624808306e+00 -2.879836324737411468e-01 -4.330737212277710135e+00 -2.127861093011285565e+00 -2.875799692440519806e+00 1.800252643781637296e+00 -3.594431827173645289e+00 3.090487852595529716e+00 -1.012514392567076538e+00 3.375138820876130707e-02 -8.335635408667632085e-01 -1.326478510412556711e+00 9.037253523934867250e-01 -3.536222561011119314e+00 -4.571612060295039970e-01 -4.049855481543124469e+00 -2.300889665200350986e+00 -1.770697296278944233e+00 -1.135530376149341603e+00 -1.085400185274223439e+01 -5.257743391500429020e+00 8.718668104885288761e-01 -4.472111388169698110e+00 1.144054612274892246e+00 1.381528404749337469e+00 -3.548705782111672757e+00 1.699758497312653382e+00 -2.812399882786932981e+00 -5.063844659005422022e-01 1.275554722770076088e+00 -1.862767479653956393e+00 6.304659147209168424e-01 4.577355905232144972e-01 -3.606128804862485993e+00 5.755896212839361148e+00 -2.748442657921902899e-01 -1.417884834896449453e+00 1.811599437190963391e+00 -2.560591674782787042e+00 -1.337701376639264694e+00 -2.380494110977751543e+00 4.993172226348659315e+00 1.585069289116829649e+00 2.564553745081838088e+00 2.912957792619587316e+00 -2.693882301667496648e+00 -8.614574413692962507e-01 9.913680957587871490e-01 1.686026234193100715e+00 -4.806960578720687494e+00 4.781929344714562546e+00 -3.070588540923541387e+00 4.683527047950515332e-01 -9.332035667949654112e-01 -5.087671588191252425e+00 -1.412429467757885915e+00 -2.205902307937406714e+00 1.069286411943639603e+00 -2.013398656133032816e+00 2.251419579405426141e+00 -4.038097825814662145e-01 -6.895436996031181209e-01 2.103532798667560877e-01 9.657424226526348798e-01 -2.519935845573979538e+00 2.654967623663437859e+00 -2.952541985942188085e-01 -2.288687208588218169e+00 -2.656733457460574765e+00 4.652620842735219142e+00 -3.153432576951951116e-01 8.326708537753743089e-01 -3.539424098932195673e+00 5.624201212708441755e-01 1.678705788667171017e+00 5.461131038106842084e+00 -4.126865684016344460e+00 2.282744874470654217e+00 3.418501507716891208e+00 1.880197503645731905e+00 -3.625348316802436965e-01 1.216868774042044521e+00 3.020489049022706318e+00 -2.834936118079107725e+00 -1.176023711624924362e+00 -1.405197982408690205e+00 -7.441698761038939569e-01 1.088846337970284406e+00 3.007383620905690336e+00 2.020089181332377137e+00 -2.617727248176407784e+00 3.681276500051713363e+00 3.032227164365527639e+00 -1.656095505597830364e+00 -9.926891286722537844e-01 -4.139343248689476340e+00 -1.225222288903573764e+00 4.963142253163159268e+00 -4.245558614385875451e+00 9.332128227671110388e-02 3.013795952719987792e+00 -8.982915825232633544e-01 2.280629370614677853e+00 3.146584186005453976e+00 2.563557699634821940e+00 8.010272561124676116e-02 1.040886004076464699e+00 -1.094008599324232778e+00 -9.502443257359447504e-01 -3.301379007288088308e-01 3.463858342334385387e+00 2.008995898715709494e+00 6.975691416741484074e-01 2.205099609464101107e+00 -2.997798547528102708e-01 2.382007462423580080e+00 -2.715720225283343225e+00 -3.587851345198700415e-01 3.535781359672172663e-01 3.006211197767229559e-01 3.764714975180149636e+00 1.437618567511164347e+00 2.481461340467517651e+00 2.087458774595136290e+00 2.420120984616358051e+00 -8.521773008518437331e-01 -4.287498966840241010e+00 -1.149137169424252480e+00 1.401494565109045354e+00 4.006937081365357756e+00 3.818512227953207105e+00 1.016339165945965961e+00 -5.395599269535686915e-01 -7.659784891412785290e-01 -7.695656925684271066e-01 1.270533872101687889e+00 3.022943938524026430e-01 -2.658310058049399016e-01 -5.330154404258566903e-01 2.283115627577158691e+00 -2.248569768425888071e+00 2.375841442312494056e+00 -9.463717298343029063e-03 -1.513448633535803056e+00 1.759262056913558636e+00 4.310172499052577599e+00 1.242794237801583712e+00 -1.635127129143008951e+00 -4.607674356216186484e-01 -1.527906976248121440e+00 -3.145133055261271959e+00 -1.405215465911632267e+00 2.219721988571668803e+00 -7.695770054232718982e-01 2.896616888016960711e+00 2.535826292865513754e+00 2.109096152147824643e+00 -2.184759610673840058e+00 4.079268904139583540e+00 -3.191207227720060380e-01 -5.152532298781842268e-01 -1.521732214385564497e+00 1.059069361356768324e+00 3.694721828034748246e-01 -2.950679992878870728e+00 -6.824366556572151188e-01 -2.542748731589176803e+00 -4.567436588415961785e-01 -6.092702527278500035e+00 -1.634394364681471146e+00 7.494817756741984915e-01 2.097974073173370257e+00 -1.004747603495452557e+00 7.882192532337340296e+00 -9.840677048391731629e-01 4.884557506983813191e+00 1.389287480510840389e+00 1.205100319679412557e+00 6.552899177951131415e-01 -2.733912838535792034e+00 3.080627671156944025e+00 -6.906436176264366678e-01 -3.327746700827923565e+00 -4.491351983157316319e+00 4.316433135767820950e+00 1.822156901864527834e+00 -5.516518261206266871e+00 2.578327145855372038e+00 1.243122824812757710e+00 2.429617097817211135e+00 2.546379643773680757e-01 1.644894236639462326e+00 -1.081925441908645619e-01 -4.076083307059424343e-01 9.623639928194403087e-03 1.881672288540952864e-01 -1.684772049967352969e-01 5.917615529728357249e-01 2.597385192503447904e+00 1.601258498620401483e+00 1.338835233227117782e-01 -6.376974000701124412e-01 5.543617690766291517e-01 -8.750678341889301937e-01 -8.586698510914045901e-01 -4.796295641926098807e-01 7.371435648039287303e-01 3.496944328990002404e+00 9.184330921330654540e-01 -3.070776745690504850e+00 2.388438820402844165e+00 4.014330546227105501e+00 3.303184436077182262e+00 1.617390115408399831e+00 1.291659600082986969e+00 4.022561676568040312e+00 2.417611587723513367e+00 -3.129463722859885610e+00 -3.680028486474063332e+00 -5.472608957788233086e-01 3.096773686123835745e+00 -9.095869538651131236e-01 2.154130056181566388e+00 1.432495386928497871e-01 -8.385741071216564757e-01 -1.677548277928278653e+00 -7.879161715680286227e-01 2.366309847885081641e-01 2.129513798259974777e+00 2.529909155561012923e+00 8.227366245596228200e-01 3.377572113109110319e+00 3.188723541860953414e+00 -1.956784502503622070e-01 -9.164795677896396819e-01 1.843184413696946855e+00 -1.439268187435804869e+00 -1.388801541973188947e+00 -1.301365001098468754e+00 -2.059445060675383576e+00 -4.747211735857920445e+00 -1.116632766351791872e+00 2.844236827423550551e+00 -6.856068261171306411e-01 -5.731992664772990409e+00 -5.254214809230203898e+00 9.109614657287552486e-01 -1.455844090886798448e+00 -3.244763310996653383e-01 -1.531570798555809798e+00 2.526640768952217897e+00 2.666630662787743411e+00 8.202313414321762419e-01 -3.901809292396082984e+00 -1.629390483295349856e-01 5.438840600297203842e+00 2.428447245782125119e+00 -2.760750529772361794e+00 -6.422595658966121501e-01 1.330407156367748200e+00 2.576632788732026835e+00 -1.385993897088981575e+00 -1.139121179121213467e+00 -2.860550478330415203e+00 3.588524460061965460e+00 1.038430086133795616e+00 -3.317752822013900094e+00 -2.790624179872732910e-02 1.380173433271336125e-01 -1.163340458681888512e+00 -4.680914806922718552e-01 -2.938039934472514769e+00 1.035877494704270596e+00 1.394797869261603096e-01 -2.089129477567442106e-01 2.121205020597149993e+00 4.167419183310874797e-01 1.745140528743210240e+00 2.538165996935686675e+00 -1.289696305546740862e-01 -1.041187337391876078e+00 -1.322505641479335914e+00 2.309838133382580594e+00 2.489681672174283156e-01 -4.269142317192542890e+00 -4.289870552592249808e-01 2.210994635279587062e+00 -3.655872456056384334e-01 -5.095545849383902315e+00 -1.107892557542840883e+00 6.718761056596019854e-01 -1.264052634716971601e+00 1.947523388151135793e+00 -1.272408206461199898e+00 5.221357136554180656e+00 -1.721876156975570726e+00 8.507163999148413536e-02 -2.695267097944634149e-01 4.518055977018446967e-01 3.742744896850889180e-01 -1.592995486597630794e+00 -1.934162392358762084e+00 -2.150712545577090129e+00 -2.142624368583739169e+00 3.216609729053365174e-01 -1.267982823334187215e+00 1.877090582328811985e-01 1.537277619604332513e+00 -3.840867457567865184e+00 1.264503092028064213e+00 -6.417093497746154673e-01 -6.190944387192020004e-01 -2.984342420910897964e+00 -1.769862201903128707e+00 -1.599730234775005311e-01 -6.151452239370202024e-01 -7.887913751564757936e-01 -1.825969848167897425e+00 -2.598378152626415805e+00 -4.796118235793304763e+00 -8.908821768205994751e-02 3.972071891175060210e-01 1.040370754960351896e+01 3.352336219274428153e+00 4.184228028727536852e+00 -2.500837175492597542e+00 1.854179994385410035e+00 1.707958260192428412e-01 2.888386271896699942e+00 -8.769910195125447672e-01 -1.347810955105110509e+00 4.957951195451424375e-01 -1.899278176003497576e+00 5.943593958217396889e-01 -1.943310378162800278e+00 -2.052625466086673178e+00 1.759557219580873078e+00 -2.209879290636025839e+00 1.488484248217396111e+00 2.191762267822766397e+00 -3.623839079122007423e+00 -2.849049418718660132e+00 -4.278850803532073255e-01 1.592622162387752560e+00 8.893734533608441684e-01 -2.718847715427252787e+00 4.773011729772817513e-01 -7.438777987606284281e-01 -2.236498438085820606e+00 -6.334746198889565916e-01 2.186195829018453995e+00 1.518257111065514364e-01 -8.486219791065305884e-01 -7.251565666545224387e-01 1.404147429570148820e+00 -6.996918446195710128e-01 -1.427346495312093344e+00 -9.472412769953274525e-01 -1.885552083532041401e+00 5.230637277071633617e-01 3.109394718365225074e+00 1.158616313342838294e-01 2.573959355443933283e+00 1.475726433276519867e+00 1.641937467759573721e+00 -5.735773215173850303e+00 -1.311314142713788065e-02 -3.164287775396203428e-01 1.997221787925655079e+00 1.116532493320213093e-01 2.072591112225706134e+00 1.482853017608063873e+00 -2.646586855106145997e+00 1.363828929123986011e+00 1.748837775394758154e+00 -8.583685177759934337e-01 1.525859863741889200e+00 1.400698037283837127e+00 -1.691114447769883400e+00 8.785115700478196565e-01 2.274513229909044032e+00 -2.065835281000666379e-01 9.224028757422377822e-01 3.510426166640945755e+00 2.357623632246980794e+00 -5.291994087984385198e-01 -2.057762016406883276e+00 -1.987066958040430320e+00 4.180048443083060228e+00 1.986624728260134143e+00 1.827350530679636931e+00 -2.895206380706084826e+00 3.359434521468860346e-01 -4.548662391580355346e-01 1.182099743117926760e+00 2.545752294550469030e-01 -2.418248707139544873e+00 -2.128839654955360317e+00 -1.299178534789375172e+00 1.462109355588114168e+00 2.063258521199427875e+00 -3.805309612128660923e+00 -7.092419509912744058e-01 5.842899779905931013e+00 2.148331189632261218e+00 -1.421243724344003034e+00 6.778091838050205320e-01 -8.904296626268078940e-01 -1.230821123610396306e+00 -7.207800344916123203e-01 1.349376242839090079e+00 9.868948901090215386e-01 -1.303293842849505557e+00 2.164238091985387857e+00 -1.951919974920361678e-01 -2.037712552297863966e-01 1.664810003373043301e+00 -3.278452478503768752e+00 -4.029839441777964271e-01 -2.644427128272140326e+00 -1.441957561564816803e+00 -2.726840247375098558e-01 2.385889314297367836e+00 1.397212649550291674e+00 -5.195176619339958446e-01 -1.227485374093206794e+00 -2.600285397109112218e-01 2.942416466635425110e+00 -4.168005394880104908e-01 -1.878021321750133588e+00 2.633686086817685457e+00 -2.000772481684895521e+00 -1.305846948499705062e+00 1.152776309139551758e+00 -9.925369193525239719e-01 4.956341684739415498e+00 1.078429255540930276e+00 -2.046563832772563707e+00 -5.294421209569267761e-01 -2.588270116822594336e+00 3.754702584421834466e+00 5.577237438482312605e-03 -9.857970289684018228e-01 -1.404834428391632528e+00 -2.582585921483761537e-01 -6.761528790116081433e-01 -2.684265346608074587e+00 2.345183605683108130e+00 2.139656286849005440e+00 -2.021687379189541556e+00 2.005088850028858616e+00 -8.438618383202471651e-02 -1.716339542970394927e+00 -1.420842117997012766e+00 -1.320004472117287378e-03 2.167213372809568384e+00 -2.959049448581317687e+00 -1.082061196166783201e+00 -3.951827023209630863e-01 -2.009839734842996162e+00 -1.803783797155236623e+00 7.715007049675612349e-02 -2.264784174742522804e+00 -3.378429833194615366e-04 -5.772281340420017948e-01 -3.052943058469040238e+00 -4.160224721850261709e+00 2.072764918813776447e+00 7.474290067405434668e-01 -1.174658455733427642e+00 1.828980095997961505e-02 7.316144584206043078e+00 1.111117749614956018e-01 1.926085528220255749e-01 -1.682555758859123340e+00 1.289668023409628717e+00 -3.263900547628643345e+00 3.390673941681403125e+00 6.104982116991846119e-01 -4.328421676579251032e-01 -1.563062186898986683e+00 -5.753723116267811521e-01 -1.686516286496149819e+00 -1.817478522165531629e+00 -2.930024776814980303e+00 8.294749722817207349e-01 -2.474246824400589517e+00 -3.679248927931121904e-01 -3.036753334744793698e+00 1.975723249955153138e+00 -2.171722573906567533e+00 7.652813087504344303e+00 -3.036110558901339296e+00 1.454208354920376367e+00 1.000381355746037482e+00 2.612899230261055417e-01 1.192688061031976998e+00 -1.463007699106925408e+00 -4.226096904508110930e-01 -2.972087513789939961e-01 1.688425587861545951e+00 -2.278611568686907063e+00 5.654000300810972934e-01 -1.641925126463378959e+00 2.260553681251245894e+00 -2.796799970176639949e-01 2.098364366665515401e+00 -2.041755355242852676e+00 -6.877752947026071206e-01 -1.527973310715166066e+00 -4.094818937344424370e+00 -6.887523139846575271e-01 -6.847979569957279855e-02 7.543416752713859585e-01 1.097317095145659671e+00 -4.248588916822255701e-01 3.426043068132969438e+00 -2.988743121445521789e-01 1.279910686105996120e-01 2.351436529088229310e+00 -2.917096754830756922e+00 6.859950627265768430e-01 4.144823812641102556e+00 -1.823462508157751849e-01 -3.777300526194980468e-01 3.176739629035595591e+00 -9.179353265198945955e-02 -2.882475305240296048e+00 -1.718079665733793782e+00 8.081852079051721205e-02 2.250834396277545668e+00 4.144636636315489397e+00 5.808154917353526514e+00 3.470811120077859080e+00 -1.544556413255606442e+00 8.910426136711256939e-01 -1.958354418223674509e+00 1.359974845166635582e+00 2.840607972121746538e+00 -1.181660598661679051e+00 -6.514841705811901251e-01 8.175491663926109931e-02 -9.080442918408233588e-01 -4.727358704046661586e+00 -4.128595522366249049e-01 -4.075425104595727932e-01 -2.208298062061128331e+00 1.543453924128914134e-01 -1.718304894389339976e+00 -1.137568746904103367e+00 -1.301356773567672320e+00 1.511804670038584986e+00 -2.113478854958831921e+00 4.334057535174656861e-01 3.558766509613415341e+00 1.780531766683791650e+00 -1.408373295075353360e+00 -8.920890527442687512e-01 7.134271930631724823e-01 3.906673305758668335e-01 4.134401588005000683e+00 -1.003745901621013514e+00 2.032652620858193260e-01 -8.818596608612032650e-01