-1.005005058458515350e+02 4.320155496166269704e-01 7.441864401246049532e+00 4.320155496166269704e-01 -7.824595510865432857e+01 4.985243201250252554e+01 7.441864401246049532e+00 4.985243201250252554e+01 -4.745181525397734390e+01
-1.166569565074253347e+02 1.120952878330087010e+01 -2.137136363476400192e+01 1.120952878330087010e+01 -6.520959058765077998e+01 1.609349198052759533e+01 -2.137136363476400192e+01 1.609349198052759533e+01 -9.226212422185339790e+01
-1.089899307940564057e+02 2.536399994277774539e+01 4.020415847275648957e+01 2.536399994277774539e+01 -1.337167799346230197e+02 2.791214114102073651e+01 4.020415847275648957e+01 2.791214114102073651e+01 -1.296840808163981649e+02
-4.282054385514776129e+01 3.078543038209762273e+01 1.518023269713342494e+01 3.078543038209762273e+01 -5.595988812099614762e+01 2.626579525402275195e+01 1.518023269713342494e+01 2.626579525402275195e+01 -1.096660742728319171e+01
-7.613085504719796859e+01 -1.241387892803518334e+01 -4.671059293641448562e+00 -1.241387892803518334e+01 -2.534622386215130163e+01 -1.783560668326833820e+01 -4.671059293641448562e+00 -1.783560668326833820e+01 -9.567770928854990586e+01
-1.080153333031639136e+02 1.800789870949785154e+01 -1.728797088056938236e+01 1.800789870949785154e+01 -1.073070005403018570e+02 -1.332113156450680336e+01 -1.728797088056938236e+01 -1.332113156450680336e+01 -1.875862406330412853e+02
-4.669386891629280711e+01 3.308113000586705987e-01 -1.741436323537940201e+00 3.308113000586705987e-01 -3.106467926261462154e+01 5.345615135986223621e+00 -1.741436323537940201e+00 5.345615135986223621e+00 -5.780073130739372544e+01
-5.843167182164582840e+01 3.240990980369998198e+01 -1.318799767318381022e+01 3.240990980369998198e+01 -7.586043400561278816e+01 -1.461862330106187358e+01 -1.318799767318381022e+01 -1.461862330106187358e+01 -4.508274427386341898e+01
-8.827927388384814833e+01 1.411759914975623964e+01 -2.791275104592502032e+01 1.411759914975623964e+01 -1.018276059709069443e+02 -2.029070225552901618e+01 -2.791275104592502032e+01 -2.029070225552901618e+01 -9.293949794704059286e+01
2.500271299795457036e+00 9.544091294580724139e+00 2.628732342074650674e+01 9.544091294580724139e+00 -7.250180046393734301e+01 -3.696004552256633247e+01 2.628732342074650674e+01 -3.696004552256633247e+01 -2.295485138847755024e+01
-6.671385943265704555e+01 -6.100782537176568932e-01 3.428195028778512565e+00 -6.100782537176568932e-01 -5.927755799542529047e+01 1.274986576503622793e+01 3.428195028778512565e+00 1.274986576503622793e+01 -6.308686518758309347e+01
-8.471958834691110951e+01 9.076487182875936366e-01 6.776458150670737979e+00 9.076487182875936366e-01 -8.574886651071652466e+01 2.198790774594148800e+01 6.776458150670737979e+00 2.198790774594148800e+01 -7.510402261224078302e+01
-9.433727729393811501e+01 2.959340942936625751e+01 4.625382863708201953e+00 2.959340942936625751e+01 -1.203954327651688345e+02 1.266255237967979508e-01 4.625382863708201953e+00 1.266255237967979508e-01 -6.400698666480435861e+01
-1.228232027649482205e+02 1.983791557474178191e+01 -1.969197469863397387e+01 1.983791557474178191e+01 -8.438566770277654427e+01 -2.020541458938306079e+01 -1.969197469863397387e+01 -2.020541458938306079e+01 -6.879789659950991165e+01
-1.047891850561102558e+02 1.614613904313986481e+01 -1.809517849408326606e+00 1.614613904313986481e+01 -9.482962200971728350e+01 3.052497324187656247e+01 -1.809517849408326606e+00 3.052497324187656247e+01 -1.188615868414715777e+02
-1.338861866219167780e+02 -1.876838037808667892e+01 -4.516092512238719081e+01 -1.876838037808667892e+01 -1.112122738254565064e+02 5.149944100562557026e+00 -4.516092512238719081e+01 5.149944100562557026e+00 -1.198702771510392182e+02
-1.083312037149266587e+02 -1.316241450432096016e+01 5.283489346779261631e+00 -1.316241450432096016e+01 -1.151471656811633579e+02 1.449808486239703420e+01 5.283489346779261631e+00 1.449808486239703420e+01 -1.242283903182019174e+02
-3.430343568989122360e+01 -3.592598968549357608e+01 -3.986398324873744770e+01 -3.592598968549357608e+01 -7.732077340622758754e+01 -1.457021299021375782e+01 -3.986398324873744770e+01 -1.457021299021375782e+01 -1.076958625178760371e+02
-7.431174570497101683e+01 -2.199088192327941016e+01 -3.268873052893776077e+01 -2.199088192327941016e+01 -1.442523864537539069e+01 3.035271176180251995e+00 -3.268873052893776077e+01 3.035271176180251995e+00 -7.586824643942640023e+01
-1.026908973440751822e+02 3.717766218883856055e+00 -1.196868423963956296e+01 3.717766218883856055e+00 -1.593747122948538220e+02 -2.226345570517159089e+01 -1.196868423963956296e+01 -2.226345570517159089e+01 -7.771459200662992828e+01
-4.713998915319927363e+01 2.386127826054620726e+01 1.587719159900497390e+00 2.386127826054620726e+01 -9.488867638299140594e+01 1.301182475790139925e+01 1.587719159900497390e+00 1.301182475790139925e+01 -9.455650552446286383e+01
-1.190631968131731533e+01 5.498854761393099011e+01 2.151031071402487882e+01 5.498854761393099011e+01 -8.141260326311525830e+01 -5.498816578698757063e+00 2.151031071402487882e+01 -5.498816578698757063e+00 -4.049101410964024694e+01
-6.822561564947243085e+01 1.860683627121177253e+01 -7.565849464453469508e+00 1.860683627121177253e+01 -6.443289069236465139e+01 -1.366324748760358609e+01 -7.565849464453469508e+00 -1.366324748760358609e+01 -9.065266994502580644e+01
-1.033540518338894998e+02 -1.160345556800384159e+01 1.792286788560916833e+01 -1.160345556800384159e+01 -1.524339955022917934e+02 -2.758715448370824674e+01 1.792286788560916833e+01 -2.758715448370824674e+01 -1.066606736729865190e+02
-1.077208564004895521e+02 4.120443204373473556e+00 2.016429742770551314e+01 4.120443204373473556e+00 -8.856890998453387454e+01 1.065931488507996150e+01 2.016429742770551314e+01 1.065931488507996150e+01 -8.809547308444143709e+01
-9.650737519922169838e+01 2.357600313265690062e+01 6.566654681866014975e+00 2.357600313265690062e+01 -8.343688273146423739e+01 3.406338287242379437e+01 6.566654681866014975e+00 3.406338287242379437e+01 -1.195116299031515581e+02
-9.638060559939158622e+01 1.967145608234861243e+01 8.666372208528548171e+00 1.967145608234861243e+01 -1.087483924152277837e+02 1.116370013169284903e+01 8.666372208528548171e+00 1.116370013169284903e+01 -8.148847609504171885e+01
-1.043394756459356500e+02 7.396662709479119080e+00 -1.154078223896001809e+01 7.396662709479119080e+00 -1.745976472445825891e+02 -7.347739223219051929e+00 -1.154078223896001809e+01 -7.347739223219051929e+00 -9.378804647282086648e+01
-1.049688723065798541e+02 -1.303620924471321807e+01 -6.700789977985945001e+00 -1.303620924471321807e+01 -1.295443634649167564e+02 -1.368476114490349360e+01 -6.700789977985945001e+00 -1.368476114490349360e+01 -7.997601095286805162e+01
-9.315502678358622290e+01 1.947560940653097816e+01 -9.636819749648701361e+00 1.947560940653097816e+01 -7.619285025159028635e+01 1.785298897304047117e+01 -9.636819749648701361e+00 1.785298897304047117e+01 -4.892648843804803249e+01
-9.171097739313407260e+01 1.319368969470498243e+01 1.317512399595955053e+01 1.319368969470498243e+01 -7.054487297744553587e+01 4.571865999318823981e+01 1.317512399595955053e+01 4.571865999318823981e+01 -1.002420932616368106e+02
-5.666177029947611743e+01 5.817742115111435908e+00 -1.280454236512841071e+01 5.817742115111435908e+00 -1.155028978076137065e+02 6.327349990656385259e+00 -1.280454236512841071e+01 6.327349990656385259e+00 -1.309975023730326029e+02
-4.721589991326878533e+01 -3.886798461221769685e+01 -2.695039543594106135e+01 -3.886798461221769685e+01 -8.093481073580362306e+01 1.968132834524631747e+01 -2.695039543594106135e+01 1.968132834524631747e+01 -1.412459315024420903e+02
-5.528814532501917256e+01 2.739455079139669902e+00 1.296230358519923698e+01 2.739455079139669902e+00 -6.021008146632004809e+01 -2.943296396588321429e+01 1.296230358519923698e+01 -2.943296396588321429e+01 -5.472597184327655384e+01
-1.642597262798288327e+01 -1.716522955499232239e+01 -1.740210277222626800e+01 -1.716522955499232239e+01 -8.268361504659303307e+01 -1.435417708748727961e+01 -1.740210277222626800e+01 -1.435417708748727961e+01 -8.852246557334176202e+01
-1.260540770113561848e+02 1.650795774561957430e+01 -2.786141823165198872e+00 1.650795774561957430e+01 -6.607346106501650240e+01 -5.608505277490743346e+00 -2.786141823165198872e+00 -5.608505277490743346e+00 -6.253970921407637462e+01
-1.696749006119564740e+02 2.856142818535273165e+01 -3.318443659457547312e+01 2.856142818535273165e+01 -9.876301863111370949e+01 5.566693445327471679e+00 -3.318443659457547312e+01 5.566693445327471679e+00 -1.720292353630161699e+02
-8.518821499117036922e+01 4.191602840875784608e+01 -1.394381570748574006e+01 4.191602840875784608e+01 -1.030811657175575959e+02 2.445610023691267898e+01 -1.394381570748574006e+01 2.445610023691267898e+01 -9.905439153528938334e+01
-5.681581812524656527e+01 1.653445831735181004e+00 1.114999712634748441e+01 1.653445831735181004e+00 -9.130817033193240206e+01 -9.278974083790897609e+00 1.114999712634748441e+01 -9.278974083790897609e+00 -1.219303546771926534e+02
-1.270644399774873108e+02 1.869892682073295020e+01 1.616358446163331308e+01 1.869892682073295020e+01 -1.204297905717427284e+02 2.736556783542966542e+01 1.616358446163331308e+01 2.736556783542966542e+01 -3.756648929288525096e+01
-3.694313771640921829e+01 4.181591109323215250e+01 -2.055180824700259379e+01 4.181591109323215250e+01 -7.700650539487072876e+01 1.647246082199783501e+01 -2.055180824700259379e+01 1.647246082199783501e+01 -7.195682930420086620e+01
-5.000271553371346300e+01 8.590957823485478428e+00 -1.164692376544765651e+01 8.590957823485478428e+00 -9.869109134426922481e+01 4.106899395408387932e+01 -1.164692376544765651e+01 4.106899395408387932e+01 -2.700040432892561881e+01
-2.907527892189294150e+01 -1.908529750477698528e+01 -1.828713053507804664e+00 -1.908529750477698528e+01 -7.513039183550448286e+01 -1.053746805275567944e+01 -1.828713053507804664e+00 -1.053746805275567944e+01 -1.072154735673491501e+02
-1.311644567131444319e+02 9.352088088775525776e+00 -3.013194909606782801e+01 9.352088088775525776e+00 -1.009408849328367666e+02 -7.339961153830344698e-02 -3.013194909606782801e+01 -7.339961153830344698e-02 -8.764620582986732700e+01
-1.104481243272492179e+02 -2.204637028745330696e+01 -2.818702243040762667e+00 -2.204637028745330696e+01 -9.247759323884454830e+01 -4.278543563135442440e+01 -2.818702243040762667e+00 -4.278543563135442440e+01 -1.226103044614914239e+02
-6.923842027163105683e+01 -2.324630167624709642e+01 1.752554589572533317e+01 -2.324630167624709642e+01 -1.050689618760143276e+02 -1.042154895645230539e+01 1.752554589572533317e+01 -1.042154895645230539e+01 -7.106055317414730155e+01
-1.167641047842870989e+02 1.919666522391482388e+01 -2.104259994532723255e+01 1.919666522391482388e+01 -1.249972653066609496e+02 -4.385522741571549865e+00 -2.104259994532723255e+01 -4.385522741571549865e+00 -7.820723047460421640e+01
-9.566117618189993266e+01 3.356772517153224555e+01 3.381807637076623685e+00 3.356772517153224555e+01 -7.470324712492939057e+01 -1.037891212353995662e+01 3.381807637076623685e+00 -1.037891212353995662e+01 -6.723612614413276845e+01
-7.495505970315149114e+01 -2.470207620847769547e+01 -2.040033393483078328e+00 -2.470207620847769547e+01 -7.004073820930753413e+01 1.734356462897966011e+01 -2.040033393483078328e+00 1.734356462897966011e+01 -9.205689325797173694e+01
-8.119545395302176871e+01 -2.389430578204921929e+01 3.849198943898278991e+00 -2.389430578204921929e+01 -1.165716324404441053e+02 3.259597585508633699e+01 3.849198943898278991e+00 3.259597585508633699e+01 -7.999409351325441264e+01
-9.962658008320656222e+01 1.914145152058889821e+01 -1.026331096180479996e+01 1.914145152058889821e+01 -1.000862992139784922e+02 2.745974723288262709e+01 -1.026331096180479996e+01 2.745974723288262709e+01 -6.424763029582891249e+01
-8.590150666782223254e+01 8.502134694394774428e+00 3.373957631491776255e+01 8.502134694394774428e+00 -9.864199730864109483e+01 3.056180121422305263e+01 3.373957631491776255e+01 3.056180121422305263e+01 -5.534340382937312341e+01
-6.600652527452766094e+01 -5.083750123459390835e+01 -2.986503984415690205e+00 -5.083750123459390835e+01 -1.043450767926442921e+02 2.117010774391462036e+01 -2.986503984415690205e+00 2.117010774391462036e+01 -9.752360786367833612e+01
-6.877170708946091793e+01 -8.800229534633670525e+00 9.738827872198198676e+00 -8.800229534633670525e+00 -7.841154149010354502e+01 2.957094451387465384e+01 9.738827872198198676e+00 2.957094451387465384e+01 -7.430328136528933669e+01
-4.217845424869917537e+01 -2.182512117419269870e+00 -9.629780133568564437e+00 -2.182512117419269870e+00 -5.872885231363088820e+01 -6.025718160164965198e+00 -9.629780133568564437e+00 -6.025718160164965198e+00 -5.144367772605243516e+01
-6.739830052001559579e+01 2.418782302633912806e+00 -1.159855214639647514e+01 2.418782302633912806e+00 -1.210116869424206101e+02 8.095437071190970002e+00 -1.159855214639647514e+01 8.095437071190970002e+00 -2.876258556485072049e+01
-1.226241652886400715e+02 4.248151080279213510e+00 -1.163505047481515042e+01 4.248151080279213510e+00 -1.310429237425676661e+02 -1.201440190688269816e+01 -1.163505047481515042e+01 -1.201440190688269816e+01 -1.243125727226223347e+02
-1.165681478877584709e+02 -1.505976120545933217e+00 2.553352219635970854e+01 -1.505976120545933217e+00 -8.819191875207924625e+01 -3.891029256485611398e+01 2.553352219635970854e+01 -3.891029256485611398e+01 -5.367237944881689771e+01
-1.305384410028085256e+02 1.189135435609701474e+01 7.125016257956856336e+00 1.189135435609701474e+01 -9.870958347769023078e+01 6.135170380803327994e+00 7.125016257956856336e+00 6.135170380803327994e+00 -7.396881292676660280e+01
-4.238672786421727068e+01 1.068968412740290219e+01 4.060613722404225356e+00 1.068968412740290219e+01 -3.364675469407558950e+01 -6.272557060622105496e+00 4.060613722404225356e+00 -6.272557060622105496e+00 -8.031091111038813324e+01
-1.298205719847589705e+02 -7.780819051802630781e+00 2.449531310034775444e+01 -7.780819051802630781e+00 -8.377032354640657275e+01 -1.284899083961162702e+00 2.449531310034775444e+01 -1.284899083961162702e+00 -1.349107469320093458e+02
4.197912836577311957e+00 -5.515561217475382527e+00 6.289757218942227723e+01 -5.515561217475382527e+00 -6.754715575390686411e+01 1.002985458661184914e+01 6.289757218942227723e+01 1.002985458661184914e+01 -1.855587331997126554e+01
-3.999635144976324597e+01 -2.511840605270744220e+01 -8.487794292605199686e+00 -2.511840605270744220e+01 -5.147719016777357837e+01 1.358160066863876381e+01 -8.487794292605199686e+00 1.358160066863876381e+01 -1.436054748821125315e+01
-1.079353268127480163e+02 1.953783472529451970e+01 -2.465594973185380923e+01 1.953783472529451970e+01 -7.591210028208307392e+01 -1.332593112918556066e+01 -2.465594973185380923e+01 -1.332593112918556066e+01 -3.060616059575280090e+01
-8.417079535402231727e+01 1.921022389867557578e+01 -2.205684990974233628e+01 1.921022389867557578e+01 -1.233636026925181142e+02 -1.103066169710570854e+01 -2.205684990974233628e+01 -1.103066169710570854e+01 -1.016391267732382033e+02
-7.098638965417087832e+01 1.340153973686718203e+01 -6.340877101056480392e+00 1.340153973686718203e+01 -8.686793026206137824e+01 -1.346232505895145337e+01 -6.340877101056480392e+00 -1.346232505895145337e+01 -3.276477136471932994e+01
-1.074350001319923678e+02 2.723411983733750041e+00 6.326852851976055625e+00 2.723411983733750041e+00 -9.169102617168663016e+01 -4.150841236447947580e+01 6.326852851976055625e+00 -4.150841236447947580e+01 -1.246612812697241424e+01
-8.967067137521340214e+01 2.036089630260168315e-01 2.543653229805190108e+01 2.036089630260168315e-01 -6.522912765414027092e+01 2.178824814626688777e+01 2.543653229805190108e+01 2.178824814626688777e+01 -4.417962300491956995e+01
-7.353494398916663499e+01 1.941274363670767000e+00 2.519958806100647664e+01 1.941274363670767000e+00 -7.737609122103341974e+01 -1.908982037219741201e+01 2.519958806100647664e+01 -1.908982037219741201e+01 -3.972186446033325780e+01
2.932309529932522452e+01 1.563470094377946928e+00 1.530276376334031241e+01 1.563470094377946928e+00 -2.096714457752556626e+01 -2.519576724605935070e+00 1.530276376334031241e+01 -2.519576724605935070e+00 -1.223634747248809518e+01
-1.002519367602381095e+02 -6.980985534771321888e+00 6.316653236112195202e+00 -6.980985534771321888e+00 -1.213129990564847418e+02 -5.501460857557570527e+00 6.316653236112195202e+00 -5.501460857557570527e+00 -4.207426436699498851e+01
-8.567631786415945783e+01 2.449005839795244555e+01 -1.324468522851132590e+01 2.449005839795244555e+01 -1.213008897968012292e+02 -1.084724577925796751e+01 -1.324468522851132590e+01 -1.084724577925796751e+01 -6.689278862936834003e+01
-8.404013035571544776e+01 2.037086656774819815e+01 -1.134924791664133714e+01 2.037086656774819815e+01 -8.310882898559091814e+01 -2.768742351180612360e+01 -1.134924791664133714e+01 -2.768742351180612360e+01 -9.985737410639870859e+01
-6.556738687055722892e+01 2.423700386395906037e+01 2.525993733672136798e+01 2.423700386395906037e+01 -7.493655331485793170e+01 -2.720928937665577507e+01 2.525993733672136798e+01 -2.720928937665577507e+01 -2.637209867513439576e+01
-1.241351407966318305e+02 2.143847582930069962e+01 2.239850560409665192e+01 2.143847582930069962e+01 -4.824377422667890869e+01 8.872652178299416548e+00 2.239850560409665192e+01 8.872652178299416548e+00 -6.926452934347064172e+01
-6.822815047127413379e+01 3.853321147579412465e+00 -2.597775340810144229e+01 3.853321147579412465e+00 -7.336606931408071830e+01 -2.437717915322126672e+01 -2.597775340810144229e+01 -2.437717915322126672e+01 -2.644330329085064690e+01
-5.179331233076769081e+01 3.528674061695271646e+00 -3.358938086845510895e+01 3.528674061695271646e+00 -4.636216821400726928e+01 2.644382257549369086e+01 -3.358938086845510895e+01 2.644382257549369086e+01 -7.841235630880079555e+01
-1.450065152856581392e+02 -3.897940935084575287e+00 -4.373054284554773119e+01 -3.897940935084575287e+00 -1.554370353934216951e+02 1.248114461700313349e+01 -4.373054284554773119e+01 1.248114461700313349e+01 -1.298418713098679973e+02
-1.345688455956547500e+02 8.106366994721939889e+00 2.151075286962535671e+01 8.106366994721939889e+00 -1.109319840846917486e+02 4.428181211344024426e+00 2.151075286962535671e+01 4.428181211344024426e+00 -8.117349686736491776e+01
-1.278040535308619070e+02 2.273145386228198461e+01 -2.298481716699694388e+01 2.273145386228198461e+01 -8.198147118938116762e+01 -1.714149748315115929e+01 -2.298481716699694388e+01 -1.714149748315115929e+01 -6.364255346596743124e+01
-9.631190398656511320e+01 1.644246933379758602e+01 2.043992480693984604e+01 1.644246933379758602e+01 -8.889097490207532815e+01 4.508079262907996210e+00 2.043992480693984604e+01 4.508079262907996210e+00 -4.088432717116949533e+01
-1.062283396796990900e+02 -4.327819781125838539e+00 -6.221022387171654122e-01 -4.327819781125838539e+00 -7.065810757578539381e+01 -3.466463583272260252e+01 -6.221022387171654122e-01 -3.466463583272260252e+01 -8.207573102504355234e+01
-1.489766291495874952e+02 2.630852296174763438e+01 1.426916637315094860e+01 2.630852296174763438e+01 -1.095021208379440623e+02 -3.295047340775296618e+01 1.426916637315094860e+01 -3.295047340775296618e+01 -1.034698141265947555e+02
-1.578556321281611190e+02 8.037494323424793308e+00 3.589464220254160409e+01 8.037494323424793308e+00 -1.421431285990831270e+02 -4.079271314167370655e+00 3.589464220254160409e+01 -4.079271314167370655e+00 -1.437221158858902754e+02
-8.898325687417080587e+01 8.373742075503841420e+00 6.836811499206355336e+00 8.373742075503841420e+00 -1.573463162229522538e+02 -3.472173779755936351e+01 6.836811499206355336e+00 -3.472173779755936351e+01 -1.298419609119240477e+02
-5.296748541940724664e+01 2.429869538865570888e+01 3.146031561381891706e+01 2.429869538865570888e+01 -4.361162717139242062e+01 -4.967038812613813192e+00 3.146031561381891706e+01 -4.967038812613813192e+00 -8.545909906156227009e+01
-1.164985484725123683e+02 -1.572361189306716156e+01 2.964141143993621608e+00 -1.572361189306716156e+01 -1.067502596923101663e+02 1.870726210290774816e+01 2.964141143993621608e+00 1.870726210290774816e+01 -1.081267122225587656e+02
-1.117467096161702216e+02 1.894369901922101818e+01 -1.087115781886512478e+00 1.894369901922101818e+01 -4.864051176678802335e+01 3.967501913085055953e+00 -1.087115781886512478e+00 3.967501913085055953e+00 -4.941310549512463979e+01
-1.427515275779036585e+02 -2.560251527041967989e+01 9.276379187883433630e+00 -2.560251527041967989e+01 -5.817424104177828070e+01 3.013032200418627937e+01 9.276379187883433630e+00 3.013032200418627937e+01 -8.031347775110178588e+01
-5.549197422036459670e+01 4.082643126084171570e+01 6.153277378114067275e+00 4.082643126084171570e+01 -6.809505298078640578e+01 3.426666015511163010e+01 6.153277378114067275e+00 3.426666015511163010e+01 -6.691843874522193403e+01
-1.544900467906025199e+02 2.128238319297260972e+01 -2.249624184680319772e+01 2.128238319297260972e+01 -1.358730439951953031e+02 -1.035134880014854319e+00 -2.249624184680319772e+01 -1.035134880014854319e+00 -1.321929162399831910e+02
-1.465930352544050095e+02 1.156895597635830875e+01 -1.843926108048994195e+01 1.156895597635830875e+01 -1.271635240693041169e+02 -1.780107756367251381e+00 -1.843926108048994195e+01 -1.780107756367251381e+00 -7.437682352555317777e+01
-1.028673635024501323e+02 1.862631199083901734e+01 9.226477715545627234e+00 1.862631199083901734e+01 -1.340983077802680441e+02 -1.223322871001426115e+01 9.226477715545627234e+00 -1.223322871001426115e+01 -7.261777403421797317e+01
-8.643726561617056348e+01 1.055088341513700279e+01 2.833211565070104498e+01 1.055088341513700279e+01 -1.012425030175582208e+02 -5.797029021636225243e-01 2.833211565070104498e+01 -5.797029021636225243e-01 -7.175587887490621597e+01
-8.447898060761924910e+01 -1.278481336696203563e+01 -1.406904959934942667e+01 -1.278481336696203563e+01 -1.219422371316718028e+02 -1.395366251525388002e+01 -1.406904959934942667e+01 -1.395366251525388002e+01 -8.920359825751125982e+01
-8.079300708190338298e+01 1.698763293431355592e+01 2.524114636007931978e+01 1.698763293431355592e+01 -8.699973463196738521e+01 -2.124892293426705692e+01 2.524114636007931978e+01 -2.124892293426705692e+01 -1.220737966232314449e+02
-9.333655673088476590e+01 -1.796333288686735941e+01 3.878112916464206528e+00 -1.796333288686735941e+01 -9.615424025964048838e+01 1.022132628931180953e+01 3.878112916464206528e+00 1.022132628931180953e+01 -6.622627278969545728e+01
-1.523610377918026586e+02 1.097072657634877935e+01 2.142340995631863265e+01 1.097072657634877935e+01 -1.230175519154937547e+02 -1.178784081718527155e+01 2.142340995631863265e+01 -1.178784081718527155e+01 -1.018020625120462199e+02
-9.551766474335744306e+01 -2.014827724191619751e+01 8.910659486798477857e+00 -2.014827724191619751e+01 -1.024166845063905384e+02 -3.375221325943709871e+01 8.910659486798477857e+00 -3.375221325943709871e+01 -9.132960889660009229e+01
-1.003320315799535933e+02 3.027141826003600489e+00 2.156905478926964292e+01 3.027141826003600489e+00 -6.974372673938275113e+01 2.840483891944691308e+01 2.156905478926964292e+01 2.840483891944691308e+01 -8.947902835949149392e+01
-6.658764526375395576e+01 -2.754774994314757475e+00 -1.912470866367134192e+01 -2.754774994314757475e+00 -7.846531239668594537e+01 5.789553868289296901e+01 -1.912470866367134192e+01 5.789553868289296901e+01 -1.315770329439691295e+02
-9.590278608964263185e+01 -8.203993016717486597e+00 2.366718926142476587e+00 -8.203993016717486597e+00 -6.782843799017321373e+01 -1.842384621768158937e+01 2.366718926142476587e+00 -1.842384621768158937e+01 -9.785884479256252177e+01
-1.769736827481444408e+01 2.495588294154961062e+01 -4.406505328503423158e+01 2.495588294154961062e+01 -6.796711957243275037e+01 -8.263967338373937821e+00 -4.406505328503423158e+01 -8.263967338373937821e+00 -1.056196782584927831e+02
-7.007404344627406090e+01 7.552504358229736425e+00 1.366245685127941556e+01 7.552504358229736425e+00 -7.809666688300922033e+01 1.149854708799214364e+01 1.366245685127941556e+01 1.149854708799214364e+01 5.807516382284645573e+01
-9.267227508793347113e+01 -4.876092980269003951e-01 6.484805240069883681e+00 -4.876092980269003951e-01 -6.684598020982350874e+01 -1.948317365283137192e+01 6.484805240069883681e+00 -1.948317365283137192e+01 -1.176644420257108550e+02
-8.218730365797435411e+01 4.253430728701493635e+00 6.202133382825667240e+01 4.253430728701493635e+00 -3.183665926777751842e+00 1.619477361367941626e+01 6.202133382825667240e+01 1.619477361367941626e+01 -3.263509402543945015e+01
-9.797370750098909298e+01 -1.840409761906545327e+01 -1.801213647946719831e+01 -1.840409761906545327e+01 -8.379444355442223014e+01 -2.472759650317052915e-01 -1.801213647946719831e+01 -2.472759650317052915e-01 -7.974180416045564357e+01
-6.707553456820603799e+01 3.991909818616068417e+00 -8.128870602010483282e+00 3.991909818616068417e+00 -1.132220555793152101e+02 5.593051977436754862e-01 -8.128870602010483282e+00 5.593051977436754862e-01 -2.379032895977946183e+01
-9.749118795611795463e+01 1.550567551036764691e+01 -3.335345127287398981e+01 1.550567551036764691e+01 -1.601660689991899744e+02 -2.000921688732877612e+01 -3.335345127287398981e+01 -2.000921688732877612e+01 -4.419873929811740965e+01
-7.765246901748722053e+01 1.331895031445470678e+01 -1.550456973953950879e+01 1.331895031445470678e+01 -8.961358391980047600e+01 1.518656669702212803e+01 -1.550456973953950879e+01 1.518656669702212803e+01 -1.001648257431616997e+02
-6.150167346749673669e+01 -3.691706657271267744e+01 -1.992210103377773933e+01 -3.691706657271267744e+01 -1.108927032560607557e+02 2.337954731558886579e+01 -1.992210103377773933e+01 2.337954731558886579e+01 -1.084069859265918865e+02
-9.208123778023015404e+01 -6.003309245958391216e+00 2.557622801267316603e+01 -6.003309245958391216e+00 -7.985837287166542353e+01 5.028510710452609089e+01 2.557622801267316603e+01 5.028510710452609089e+01 -7.723188893027464985e+01
-9.943952331817769164e+01 -8.559050836785749183e+00 -4.071929800250637221e+00 -8.559050836785749183e+00 -6.304794989461259291e+01 -1.880492096202042518e+01 -4.071929800250637221e+00 -1.880492096202042518e+01 -1.410979374155838570e+02
-9.180627808904421272e+01 5.898199161320570028e+01 1.723363919748275208e+01 5.898199161320570028e+01 -1.317730758788356411e+02 -1.432571952539438165e+01 1.723363919748275208e+01 -1.432571952539438165e+01 -1.148466042388699861e+02
-9.601020724549330509e+01 2.322606612100245371e+01 1.326487420086887248e+01 2.322606612100245371e+01 -1.470672492996029348e+02 -4.208633773494584673e+00 1.326487420086887248e+01 -4.208633773494584673e+00 -9.122194693522378373e+01
-4.731062557780213496e+01 1.133739422645859207e+01 -2.591071452433788025e+01 1.133739422645859207e+01 -3.489932779990444800e+01 -1.191037977448232077e+01 -2.591071452433788025e+01 -1.191037977448232077e+01 -9.762276373896050075e+01
-6.322107888550208088e+01 1.189256805667449157e+01 -2.480809376848437253e+01 1.189256805667449157e+01 -4.130040857333472815e+01 -1.775077746400577894e+01 -2.480809376848437253e+01 -1.775077746400577894e+01 -1.270508023918249307e+02
-1.144009332850002778e+02 3.220803993512558350e+01 1.009000505776486456e+01 3.220803993512558350e+01 -1.699045053714955031e+02 -1.875895408905888928e+01 1.009000505776486456e+01 -1.875895408905888928e+01 -1.007823773683672073e+02
-1.420083569247241826e+02 7.449337263631319317e+00 -2.282458349019184141e+01 7.449337263631319317e+00 -1.466985083291903891e+02 -2.043741187654956803e+01 -2.282458349019184141e+01 -2.043741187654956803e+01 -8.070228830931425534e+01
-1.488382624472805844e+02 2.566096482981542248e+00 1.138730638995081534e+00 2.566096482981542248e+00 -8.589862311074554668e+01 -1.946616377160471867e+00 1.138730638995081534e+00 -1.946616377160471867e+00 -1.183778403593556021e+02
-1.136989767775420006e+02 -1.788804017734359419e+01 -1.214322191739896306e+00 -1.788804017734359419e+01 -8.672586111115981566e+01 1.166565415888134716e+01 -1.214322191739896306e+00 1.166565415888134716e+01 -8.797112935845849790e+01
-1.039649016325841302e+02 3.855753970676961018e+01 -8.606006896082035951e+00 3.855753970676961018e+01 -1.124456527453910724e+02 1.230087393496397041e+01 -8.606006896082035951e+00 1.230087393496397041e+01 -1.075880422255938385e+01
-5.488946428576806369e+01 -4.546725927896244457e+01 2.162929511703000784e+01 -4.546725927896244457e+01 -4.434890827124532109e+01 1.250744511141701842e+01 2.162929511703000784e+01 1.250744511141701842e+01 -5.549233822871731547e+01
2.052856414999511880e+00 -2.759186928280556117e+01 -1.533440805310296540e+01 -2.759186928280556117e+01 -7.959101840953846363e+01 5.278140460404575407e+00 -1.533440805310296540e+01 5.278140460404575407e+00 2.453049743497848656e+00
-1.135620258895412888e+02 -1.264705809686721416e+01 1.154236172974928643e+01 -1.264705809686721416e+01 -1.463677428483649408e+02 -1.296803175300438404e+01 1.154236172974928643e+01 -1.296803175300438404e+01 -7.510606385908030802e+01
-6.890860604899729935e+01 -3.672195020456214820e+01 -2.474136518275015906e+00 -3.672195020456214820e+01 -7.574154531389480383e+01 1.833602372973393457e+01 -2.474136518275015906e+00 1.833602372973393457e+01 -6.882971322049968421e+01
-1.307564652057050409e+02 2.996751226826959069e+01 -1.605484829378950451e+01 2.996751226826959069e+01 -1.197410081120375054e+02 -3.482178994795338767e+00 -1.605484829378950451e+01 -3.482178994795338767e+00 -1.352816643159993930e+02
-7.707612237415622758e+01 -4.250136682205501160e+01 8.522855424408851022e+00 -4.250136682205501160e+01 -2.693883346154309066e+01 -9.662358881137409483e+00 8.522855424408851022e+00 -9.662358881137409483e+00 -6.896531829580048623e+01
-5.677155878237597619e+01 -2.465177687246484695e+01 -4.076841927512312935e+01 -2.465177687246484695e+01 -8.520275088835497002e+01 -8.270999827017799788e+00 -4.076841927512312935e+01 -8.270999827017799788e+00 -1.023379721547615162e+02
-2.460339481681054252e+01 -2.212318445007094425e+01 -1.418741697001399693e+01 -2.212318445007094425e+01 -9.238542479662692131e+01 -1.452657246154281090e+01 -1.418741697001399693e+01 -1.452657246154281090e+01 -4.340677116156919624e+01