1.634799999999999898e+01 0.000000000000000000e+00 0.000000000000000000e+00 0.000000000000000000e+00 1.634799999999999898e+01 0.000000000000000000e+00 0.000000000000000000e+00 0.000000000000000000e+00 1.634799999999999898e+01
1.617599999999999838e+01 0.000000000000000000e+00 0.000000000000000000e+00 0.000000000000000000e+00 1.617599999999999838e+01 0.000000000000000000e+00 0.000000000000000000e+00 0.000000000000000000e+00 1.617599999999999838e+01
1.733800000000000097e+01 0.000000000000000000e+00 0.000000000000000000e+00 0.000000000000000000e+00 1.733800000000000097e+01 0.000000000000000000e+00 0.000000000000000000e+00 0.000000000000000000e+00 1.733800000000000097e+01
1.757700000000000173e+01 0.000000000000000000e+00 0.000000000000000000e+00 0.000000000000000000e+00 1.757700000000000173e+01 0.000000000000000000e+00 0.000000000000000000e+00 0.000000000000000000e+00 1.757700000000000173e+01
1.667000000000000171e+01 0.000000000000000000e+00 0.000000000000000000e+00 0.000000000000000000e+00 1.667000000000000171e+01 0.000000000000000000e+00 0.000000000000000000e+00 0.000000000000000000e+00 1.667000000000000171e+01
1.775199999999999889e+01 0.000000000000000000e+00 0.000000000000000000e+00 0.000000000000000000e+00 1.775199999999999889e+01 0.000000000000000000e+00 0.000000000000000000e+00 0.000000000000000000e+00 1.775199999999999889e+01
1.761400000000000077e+01 0.000000000000000000e+00 0.000000000000000000e+00 0.000000000000000000e+00 1.761400000000000077e+01 0.000000000000000000e+00 0.000000000000000000e+00 0.000000000000000000e+00 1.761400000000000077e+01
1.723900000000000077e+01 0.000000000000000000e+00 0.000000000000000000e+00 0.000000000000000000e+00 1.723900000000000077e+01 0.000000000000000000e+00 0.000000000000000000e+00 0.000000000000000000e+00 1.723900000000000077e+01
1.793599999999999994e+01 0.000000000000000000e+00 0.000000000000000000e+00 0.000000000000000000e+00 1.793599999999999994e+01 0.000000000000000000e+00 0.000000000000000000e+00 0.000000000000000000e+00 1.793599999999999994e+01
1.657199999999999918e+01 0.000000000000000000e+00 0.000000000000000000e+00 0.000000000000000000e+00 1.657199999999999918e+01 0.000000000000000000e+00 0.000000000000000000e+00 0.000000000000000000e+00 1.657199999999999918e+01
1.727700000000000102e+01 0.000000000000000000e+00 0.000000000000000000e+00 0.000000000000000000e+00 1.727700000000000102e+01 0.000000000000000000e+00 0.000000000000000000e+00 0.000000000000000000e+00 1.727700000000000102e+01
1.721199999999999974e+01 0.000000000000000000e+00 0.000000000000000000e+00 0.000000000000000000e+00 1.721199999999999974e+01 0.000000000000000000e+00 0.000000000000000000e+00 0.000000000000000000e+00 1.721199999999999974e+01
1.729200000000000159e+01 0.000000000000000000e+00 0.000000000000000000e+00 0.000000000000000000e+00 1.729200000000000159e+01 0.000000000000000000e+00 0.000000000000000000e+00 0.000000000000000000e+00 1.729200000000000159e+01
1.729500000000000171e+01 0.000000000000000000e+00 0.000000000000000000e+00 0.000000000000000000e+00 1.729500000000000171e+01 0.000000000000000000e+00 0.000000000000000000e+00 0.000000000000000000e+00 1.729500000000000171e+01
1.723999999999999844e+01 0.000000000000000000e+00 0.000000000000000000e+00 0.000000000000000000e+00 1.723999999999999844e+01 0.000000000000000000e+00 0.000000000000000000e+00 0.000000000000000000e+00 1.723999999999999844e+01
1.758299999999999841e+01 0.000000000000000000e+00 0.000000000000000000e+00 0.000000000000000000e+00 1.758299999999999841e+01 0.000000000000000000e+00 0.000000000000000000e+00 0.000000000000000000e+00 1.758299999999999841e+01
1.691199999999999903e+01 0.000000000000000000e+00 0.000000000000000000e+00 0.000000000000000000e+00 1.691199999999999903e+01 0.000000000000000000e+00 0.000000000000000000e+00 0.000000000000000000e+00 1.691199999999999903e+01
1.632199999999999918e+01 0.000000000000000000e+00 0.000000000000000000e+00 0.000000000000000000e+00 1.632199999999999918e+01 0.000000000000000000e+00 0.000000000000000000e+00 0.000000000000000000e+00 1.632199999999999918e+01
1.715700000000000003e+01 0.000000000000000000e+00 0.000000000000000000e+00 0.000000000000000000e+00 1.715700000000000003e+01 0.000000000000000000e+00 0.000000000000000000e+00 0.000000000000000000e+00 1.715700000000000003e+01
1.754200000000000159e+01 0.000000000000000000e+00 0.000000000000000000e+00 0.000000000000000000e+00 1.754200000000000159e+01 0.000000000000000000e+00 0.000000000000000000e+00 0.000000000000000000e+00 1.754200000000000159e+01
1.706599999999999895e+01 0.000000000000000000e+00 0.000000000000000000e+00 0.000000000000000000e+00 1.706599999999999895e+01 0.000000000000000000e+00 0.000000000000000000e+00 0.000000000000000000e+00 1.706599999999999895e+01
1.748400000000000176e+01 0.000000000000000000e+00 0.000000000000000000e+00 0.000000000000000000e+00 1.748400000000000176e+01 0.000000000000000000e+00 0.000000000000000000e+00 0.000000000000000000e+00 1.748400000000000176e+01
1.713700000000000045e+01 0.000000000000000000e+00 0.000000000000000000e+00 0.000000000000000000e+00 1.713700000000000045e+01 0.000000000000000000e+00 0.000000000000000000e+00 0.000000000000000000e+00 1.713700000000000045e+01
1.719699999999999918e+01 0.000000000000000000e+00 0.000000000000000000e+00 0.000000000000000000e+00 1.719699999999999918e+01 0.000000000000000000e+00 0.000000000000000000e+00 0.000000000000000000e+00 1.719699999999999918e+01
1.758599999999999852e+01 0.000000000000000000e+00 0.000000000000000000e+00 0.000000000000000000e+00 1.758599999999999852e+01 0.000000000000000000e+00 0.000000000000000000e+00 0.000000000000000000e+00 1.758599999999999852e+01
1.742999999999999972e+01 0.000000000000000000e+00 0.000000000000000000e+00 0.000000000000000000e+00 1.742999999999999972e+01 0.000000000000000000e+00 0.000000000000000000e+00 0.000000000000000000e+00 1.742999999999999972e+01
1.710399999999999920e+01 0.000000000000000000e+00 0.000000000000000000e+00 0.000000000000000000e+00 1.710399999999999920e+01 0.000000000000000000e+00 0.000000000000000000e+00 0.000000000000000000e+00 1.710399999999999920e+01
1.745299999999999940e+01 0.000000000000000000e+00 0.000000000000000000e+00 0.000000000000000000e+00 1.745299999999999940e+01 0.000000000000000000e+00 0.000000000000000000e+00 0.000000000000000000e+00 1.745299999999999940e+01
1.709100000000000108e+01 0.000000000000000000e+00 0.000000000000000000e+00 0.000000000000000000e+00 1.709100000000000108e+01 0.000000000000000000e+00 0.000000000000000000e+00 0.000000000000000000e+00 1.709100000000000108e+01
1.691300000000000026e+01 0.000000000000000000e+00 0.000000000000000000e+00 0.000000000000000000e+00 1.691300000000000026e+01 0.000000000000000000e+00 0.000000000000000000e+00 0.000000000000000000e+00 1.691300000000000026e+01
1.678900000000000148e+01 0.000000000000000000e+00 0.000000000000000000e+00 0.000000000000000000e+00 1.678900000000000148e+01 0.000000000000000000e+00 0.000000000000000000e+00 0.000000000000000000e+00 1.678900000000000148e+01
1.761799999999999855e+01 0.000000000000000000e+00 0.000000000000000000e+00 0.000000000000000000e+00 1.761799999999999855e+01 0.000000000000000000e+00 0.000000000000000000e+00 0.000000000000000000e+00 1.761799999999999855e+01
1.659700000000000131e+01 0.000000000000000000e+00 0.000000000000000000e+00 0.000000000000000000e+00 1.659700000000000131e+01 0.000000000000000000e+00 0.000000000000000000e+00 0.000000000000000000e+00 1.659700000000000131e+01
1.733399999999999963e+01 0.000000000000000000e+00 0.000000000000000000e+00 0.000000000000000000e+00 1.733399999999999963e+01 0.000000000000000000e+00 0.000000000000000000e+00 0.000000000000000000e+00 1.733399999999999963e+01
1.635900000000000176e+01 0.000000000000000000e+00 0.000000000000000000e+00 0.000000000000000000e+00 1.635900000000000176e+01 0.000000000000000000e+00 0.000000000000000000e+00 0.000000000000000000e+00 1.635900000000000176e+01
1.720100000000000051e+01 0.000000000000000000e+00 0.000000000000000000e+00 0.000000000000000000e+00 1.720100000000000051e+01 0.000000000000000000e+00 0.000000000000000000e+00 0.000000000000000000e+00 1.720100000000000051e+01
1.715599999999999881e+01 0.000000000000000000e+00 0.000000000000000000e+00 0.000000000000000000e+00 1.715599999999999881e+01 0.000000000000000000e+00 0.000000000000000000e+00 0.000000000000000000e+00 1.715599999999999881e+01
1.716600000000000037e+01 0.000000000000000000e+00 0.000000000000000000e+00 0.000000000000000000e+00 1.716600000000000037e+01 0.000000000000000000e+00 0.000000000000000000e+00 0.000000000000000000e+00 1.716600000000000037e+01
1.735900000000000176e+01 0.000000000000000000e+00 0.000000000000000000e+00 0.000000000000000000e+00 1.735900000000000176e+01 0.000000000000000000e+00 0.000000000000000000e+00 0.000000000000000000e+00 1.735900000000000176e+01
1.709900000000000020e+01 0.000000000000000000e+00 0.000000000000000000e+00 0.000000000000000000e+00 1.709900000000000020e+01 0.000000000000000000e+00 0.000000000000000000e+00 0.000000000000000000e+00 1.709900000000000020e+01
1.798699999999999832e+01 0.000000000000000000e+00 0.000000000000000000e+00 0.000000000000000000e+00 1.798699999999999832e+01 0.000000000000000000e+00 0.000000000000000000e+00 0.000000000000000000e+00 1.798699999999999832e+01
1.744900000000000162e+01 0.000000000000000000e+00 0.000000000000000000e+00 0.000000000000000000e+00 1.744900000000000162e+01 0.000000000000000000e+00 0.000000000000000000e+00 0.000000000000000000e+00 1.744900000000000162e+01
1.720299999999999940e+01 0.000000000000000000e+00 0.000000000000000000e+00 0.000000000000000000e+00 1.720299999999999940e+01 0.000000000000000000e+00 0.000000000000000000e+00 0.000000000000000000e+00 1.720299999999999940e+01
1.662300000000000111e+01 0.000000000000000000e+00 0.000000000000000000e+00 0.000000000000000000e+00 1.662300000000000111e+01 0.000000000000000000e+00 0.000000000000000000e+00 0.000000000000000000e+00 1.662300000000000111e+01
1.636700000000000088e+01 0.000000000000000000e+00 0.000000000000000000e+00 0.000000000000000000e+00 1.636700000000000088e+01 0.000000000000000000e+00 0.000000000000000000e+00 0.000000000000000000e+00 1.636700000000000088e+01
1.794500000000000028e+01 0.000000000000000000e+00 0.000000000000000000e+00 0.000000000000000000e+00 1.794500000000000028e+01 0.000000000000000000e+00 0.000000000000000000e+00 0.000000000000000000e+00 1.794500000000000028e+01
1.751000000000000156e+01 0.000000000000000000e+00 0.000000000000000000e+00 0.000000000000000000e+00 1.751000000000000156e+01 0.000000000000000000e+00 0.000000000000000000e+00 0.000000000000000000e+00 1.751000000000000156e+01
1.603600000000000136e+01 0.000000000000000000e+00 0.000000000000000000e+00 0.000000000000000000e+00 1.603600000000000136e+01 0.000000000000000000e+00 0.000000000000000000e+00 0.000000000000000000e+00 1.603600000000000136e+01
1.698199999999999932e+01 0.000000000000000000e+00 0.000000000000000000e+00 0.000000000000000000e+00 1.698199999999999932e+01 0.000000000000000000e+00 0.000000000000000000e+00 0.000000000000000000e+00 1.698199999999999932e+01
1.736299999999999955e+01 0.000000000000000000e+00 0.000000000000000000e+00 0.000000000000000000e+00 1.736299999999999955e+01 0.000000000000000000e+00 0.000000000000000000e+00 0.000000000000000000e+00 1.736299999999999955e+01
1.684799999999999898e+01 0.000000000000000000e+00 0.000000000000000000e+00 0.000000000000000000e+00 1.684799999999999898e+01 0.000000000000000000e+00 0.000000000000000000e+00 0.000000000000000000e+00 1.684799999999999898e+01
1.713599999999999923e+01 0.000000000000000000e+00 0.000000000000000000e+00 0.000000000000000000e+00 1.713599999999999923e+01 0.000000000000000000e+00 0.000000000000000000e+00 0.000000000000000000e+00 1.713599999999999923e+01
1.774500000000000099e+01 0.000000000000000000e+00 0.000000000000000000e+00 0.000000000000000000e+00 1.774500000000000099e+01 0.000000000000000000e+00 0.000000000000000000e+00 0.000000000000000000e+00 1.774500000000000099e+01
1.677199999999999847e+01 0.000000000000000000e+00 0.000000000000000000e+00 0.000000000000000000e+00 1.677199999999999847e+01 0.000000000000000000e+00 0.000000000000000000e+00 0.000000000000000000e+00 1.677199999999999847e+01
1.615299999999999869e+01 0.000000000000000000e+00 0.000000000000000000e+00 0.000000000000000000e+00 1.615299999999999869e+01 0.000000000000000000e+00 0.000000000000000000e+00 0.000000000000000000e+00 1.615299999999999869e+01
1.768599999999999994e+01 0.000000000000000000e+00 0.000000000000000000e+00 0.000000000000000000e+00 1.768599999999999994e+01 0.000000000000000000e+00 0.000000000000000000e+00 0.000000000000000000e+00 1.768599999999999994e+01
1.737999999999999901e+01 0.000000000000000000e+00 0.000000000000000000e+00 0.000000000000000000e+00 1.737999999999999901e+01 0.000000000000000000e+00 0.000000000000000000e+00 0.000000000000000000e+00 1.737999999999999901e+01
1.837099999999999866e+01 0.000000000000000000e+00 0.000000000000000000e+00 0.000000000000000000e+00 1.837099999999999866e+01 0.000000000000000000e+00 0.000000000000000000e+00 0.000000000000000000e+00 1.837099999999999866e+01
1.851099999999999923e+01 0.000000000000000000e+00 0.000000000000000000e+00 0.000000000000000000e+00 1.851099999999999923e+01 0.000000000000000000e+00 0.000000000000000000e+00 0.000000000000000000e+00 1.851099999999999923e+01
1.698699999999999832e+01 0.000000000000000000e+00 0.000000000000000000e+00 0.000000000000000000e+00 1.698699999999999832e+01 0.000000000000000000e+00 0.000000000000000000e+00 0.000000000000000000e+00 1.698699999999999832e+01
1.671999999999999886e+01 0.000000000000000000e+00 0.000000000000000000e+00 0.000000000000000000e+00 1.671999999999999886e+01 0.000000000000000000e+00 0.000000000000000000e+00 0.000000000000000000e+00 1.671999999999999886e+01
1.731599999999999895e+01 0.000000000000000000e+00 0.000000000000000000e+00 0.000000000000000000e+00 1.731599999999999895e+01 0.000000000000000000e+00 0.000000000000000000e+00 0.000000000000000000e+00 1.731599999999999895e+01
1.675300000000000011e+01 0.000000000000000000e+00 0.000000000000000000e+00 0.000000000000000000e+00 1.675300000000000011e+01 0.000000000000000000e+00 0.000000000000000000e+00 0.000000000000000000e+00 1.675300000000000011e+01
1.757700000000000173e+01 0.000000000000000000e+00 0.000000000000000000e+00 0.000000000000000000e+00 1.757700000000000173e+01 0.000000000000000000e+00 0.000000000000000000e+00 0.000000000000000000e+00 1.757700000000000173e+01
1.758099999999999952e+01 0.000000000000000000e+00 0.000000000000000000e+00 0.000000000000000000e+00 1.758099999999999952e+01 0.000000000000000000e+00 0.000000000000000000e+00 0.000000000000000000e+00 1.758099999999999952e+01
1.768199999999999861e+01 0.000000000000000000e+00 0.000000000000000000e+00 0.000000000000000000e+00 1.768199999999999861e+01 0.000000000000000000e+00 0.000000000000000000e+00 0.000000000000000000e+00 1.768199999999999861e+01
1.647700000000000031e+01 0.000000000000000000e+00 0.000000000000000000e+00 0.000000000000000000e+00 1.647700000000000031e+01 0.000000000000000000e+00 0.000000000000000000e+00 0.000000000000000000e+00 1.647700000000000031e+01
1.712099999999999866e+01 0.000000000000000000e+00 0.000000000000000000e+00 0.000000000000000000e+00 1.712099999999999866e+01 0.000000000000000000e+00 0.000000000000000000e+00 0.000000000000000000e+00 1.712099999999999866e+01
1.704200000000000159e+01 0.000000000000000000e+00 0.000000000000000000e+00 0.000000000000000000e+00 1.704200000000000159e+01 0.000000000000000000e+00 0.000000000000000000e+00 0.000000000000000000e+00 1.704200000000000159e+01
1.700199999999999889e+01 0.000000000000000000e+00 0.000000000000000000e+00 0.000000000000000000e+00 1.700199999999999889e+01 0.000000000000000000e+00 0.000000000000000000e+00 0.000000000000000000e+00 1.700199999999999889e+01
1.670100000000000051e+01 0.000000000000000000e+00 0.000000000000000000e+00 0.000000000000000000e+00 1.670100000000000051e+01 0.000000000000000000e+00 0.000000000000000000e+00 0.000000000000000000e+00 1.670100000000000051e+01
1.809900000000000020e+01 0.000000000000000000e+00 0.000000000000000000e+00 0.000000000000000000e+00 1.809900000000000020e+01 0.000000000000000000e+00 0.000000000000000000e+00 0.000000000000000000e+00 1.809900000000000020e+01
1.729200000000000159e+01 0.000000000000000000e+00 0.000000000000000000e+00 0.000000000000000000e+00 1.729200000000000159e+01 0.000000000000000000e+00 0.000000000000000000e+00 0.000000000000000000e+00 1.729200000000000159e+01
1.684799999999999898e+01 0.000000000000000000e+00 0.000000000000000000e+00 0.000000000000000000e+00 1.684799999999999898e+01 0.000000000000000000e+00 0.000000000000000000e+00 0.000000000000000000e+00 1.684799999999999898e+01
1.752499999999999858e+01 0.000000000000000000e+00 0.000000000000000000e+00 0.000000000000000000e+00 1.752499999999999858e+01 0.000000000000000000e+00 0.000000000000000000e+00 0.000000000000000000e+00 1.752499999999999858e+01
1.620400000000000063e+01 0.000000000000000000e+00 0.000000000000000000e+00 0.000000000000000000e+00 1.620400000000000063e+01 0.000000000000000000e+00 0.000000000000000000e+00 0.000000000000000000e+00 1.620400000000000063e+01
1.723100000000000165e+01 0.000000000000000000e+00 0.000000000000000000e+00 0.000000000000000000e+00 1.723100000000000165e+01 0.000000000000000000e+00 0.000000000000000000e+00 0.000000000000000000e+00 1.723100000000000165e+01
1.755799999999999983e+01 0.000000000000000000e+00 0.000000000000000000e+00 0.000000000000000000e+00 1.755799999999999983e+01 0.000000000000000000e+00 0.000000000000000000e+00 0.000000000000000000e+00 1.755799999999999983e+01
1.691499999999999915e+01 0.000000000000000000e+00 0.000000000000000000e+00 0.000000000000000000e+00 1.691499999999999915e+01 0.000000000000000000e+00 0.000000000000000000e+00 0.000000000000000000e+00 1.691499999999999915e+01
1.717599999999999838e+01 0.000000000000000000e+00 0.000000000000000000e+00 0.000000000000000000e+00 1.717599999999999838e+01 0.000000000000000000e+00 0.000000000000000000e+00 0.000000000000000000e+00 1.717599999999999838e+01
1.668799999999999883e+01 0.000000000000000000e+00 0.000000000000000000e+00 0.000000000000000000e+00 1.668799999999999883e+01 0.000000000000000000e+00 0.000000000000000000e+00 0.000000000000000000e+00 1.668799999999999883e+01
1.797299999999999898e+01 0.000000000000000000e+00 0.000000000000000000e+00 0.000000000000000000e+00 1.797299999999999898e+01 0.000000000000000000e+00 0.000000000000000000e+00 0.000000000000000000e+00 1.797299999999999898e+01
1.702599999999999980e+01 0.000000000000000000e+00 0.000000000000000000e+00 0.000000000000000000e+00 1.702599999999999980e+01 0.000000000000000000e+00 0.000000000000000000e+00 0.000000000000000000e+00 1.702599999999999980e+01
1.729100000000000037e+01 0.000000000000000000e+00 0.000000000000000000e+00 0.000000000000000000e+00 1.729100000000000037e+01 0.000000000000000000e+00 0.000000000000000000e+00 0.000000000000000000e+00 1.729100000000000037e+01
1.602400000000000091e+01 0.000000000000000000e+00 0.000000000000000000e+00 0.000000000000000000e+00 1.602400000000000091e+01 0.000000000000000000e+00 0.000000000000000000e+00 0.000000000000000000e+00 1.602400000000000091e+01
1.641300000000000026e+01 0.000000000000000000e+00 0.000000000000000000e+00 0.000000000000000000e+00 1.641300000000000026e+01 0.000000000000000000e+00 0.000000000000000000e+00 0.000000000000000000e+00 1.641300000000000026e+01
1.692399999999999949e+01 0.000000000000000000e+00 0.000000000000000000e+00 0.000000000000000000e+00 1.692399999999999949e+01 0.000000000000000000e+00 0.000000000000000000e+00 0.000000000000000000e+00 1.692399999999999949e+01
1.701899999999999835e+01 0.000000000000000000e+00 0.000000000000000000e+00 0.000000000000000000e+00 1.701899999999999835e+01 0.000000000000000000e+00 0.000000000000000000e+00 0.000000000000000000e+00 1.701899999999999835e+01
1.695799999999999841e+01 0.000000000000000000e+00 0.000000000000000000e+00 0.000000000000000000e+00 1.695799999999999841e+01 0.000000000000000000e+00 0.000000000000000000e+00 0.000000000000000000e+00 1.695799999999999841e+01
1.659600000000000009e+01 0.000000000000000000e+00 0.000000000000000000e+00 0.000000000000000000e+00 1.659600000000000009e+01 0.000000000000000000e+00 0.000000000000000000e+00 0.000000000000000000e+00 1.659600000000000009e+01
1.682900000000000063e+01 0.000000000000000000e+00 0.000000000000000000e+00 0.000000000000000000e+00 1.682900000000000063e+01 0.000000000000000000e+00 0.000000000000000000e+00 0.000000000000000000e+00 1.682900000000000063e+01
1.646399999999999864e+01 0.000000000000000000e+00 0.000000000000000000e+00 0.000000000000000000e+00 1.646399999999999864e+01 0.000000000000000000e+00 0.000000000000000000e+00 0.000000000000000000e+00 1.646399999999999864e+01
1.712199999999999989e+01 0.000000000000000000e+00 0.000000000000000000e+00 0.000000000000000000e+00 1.712199999999999989e+01 0.000000000000000000e+00 0.000000000000000000e+00 0.000000000000000000e+00 1.712199999999999989e+01
1.610600000000000165e+01 0.000000000000000000e+00 0.000000000000000000e+00 0.000000000000000000e+00 1.610600000000000165e+01 0.000000000000000000e+00 0.000000000000000000e+00 0.000000000000000000e+00 1.610600000000000165e+01
1.667099999999999937e+01 0.000000000000000000e+00 0.000000000000000000e+00 0.000000000000000000e+00 1.667099999999999937e+01 0.000000000000000000e+00 0.000000000000000000e+00 0.000000000000000000e+00 1.667099999999999937e+01
1.699399999999999977e+01 0.000000000000000000e+00 0.000000000000000000e+00 0.000000000000000000e+00 1.699399999999999977e+01 0.000000000000000000e+00 0.000000000000000000e+00 0.000000000000000000e+00 1.699399999999999977e+01
1.698300000000000054e+01 0.000000000000000000e+00 0.000000000000000000e+00 0.000000000000000000e+00 1.698300000000000054e+01 0.000000000000000000e+00 0.000000000000000000e+00 0.000000000000000000e+00 1.698300000000000054e+01
1.734600000000000009e+01 0.000000000000000000e+00 0.000000000000000000e+00 0.000000000000000000e+00 1.734600000000000009e+01 0.000000000000000000e+00 0.000000000000000000e+00 0.000000000000000000e+00 1.734600000000000009e+01
1.788500000000000156e+01 0.000000000000000000e+00 0.000000000000000000e+00 0.000000000000000000e+00 1.788500000000000156e+01 0.000000000000000000e+00 0.000000000000000000e+00 0.000000000000000000e+00 1.788500000000000156e+01
1.622700000000000031e+01 0.000000000000000000e+00 0.000000000000000000e+00 0.000000000000000000e+00 1.622700000000000031e+01 0.000000000000000000e+00 0.000000000000000000e+00 0.000000000000000000e+00 1.622700000000000031e+01
1.686899999999999977e+01 0.000000000000000000e+00 0.000000000000000000e+00 0.000000000000000000e+00 1.686899999999999977e+01 0.000000000000000000e+00 0.000000000000000000e+00 0.000000000000000000e+00 1.686899999999999977e+01
1.626200000000000045e+01 0.000000000000000000e+00 0.000000000000000000e+00 0.000000000000000000e+00 1.626200000000000045e+01 0.000000000000000000e+00 0.000000000000000000e+00 0.000000000000000000e+00 1.626200000000000045e+01
1.631899999999999906e+01 0.000000000000000000e+00 0.000000000000000000e+00 0.000000000000000000e+00 1.631899999999999906e+01 0.000000000000000000e+00 0.000000000000000000e+00 0.000000000000000000e+00 1.631899999999999906e+01
1.723699999999999832e+01 0.000000000000000000e+00 0.000000000000000000e+00 0.000000000000000000e+00 1.723699999999999832e+01 0.000000000000000000e+00 0.000000000000000000e+00 0.000000000000000000e+00 1.723699999999999832e+01
1.717599999999999838e+01 0.000000000000000000e+00 0.000000000000000000e+00 0.000000000000000000e+00 1.717599999999999838e+01 0.000000000000000000e+00 0.000000000000000000e+00 0.000000000000000000e+00 1.717599999999999838e+01
1.684700000000000131e+01 0.000000000000000000e+00 0.000000000000000000e+00 0.000000000000000000e+00 1.684700000000000131e+01 0.000000000000000000e+00 0.000000000000000000e+00 0.000000000000000000e+00 1.684700000000000131e+01
1.700900000000000034e+01 0.000000000000000000e+00 0.000000000000000000e+00 0.000000000000000000e+00 1.700900000000000034e+01 0.000000000000000000e+00 0.000000000000000000e+00 0.000000000000000000e+00 1.700900000000000034e+01
1.673699999999999832e+01 0.000000000000000000e+00 0.000000000000000000e+00 0.000000000000000000e+00 1.673699999999999832e+01 0.000000000000000000e+00 0.000000000000000000e+00 0.000000000000000000e+00 1.673699999999999832e+01
1.596100000000000030e+01 0.000000000000000000e+00 0.000000000000000000e+00 0.000000000000000000e+00 1.596100000000000030e+01 0.000000000000000000e+00 0.000000000000000000e+00 0.000000000000000000e+00 1.596100000000000030e+01
1.754299999999999926e+01 0.000000000000000000e+00 0.000000000000000000e+00 0.000000000000000000e+00 1.754299999999999926e+01 0.000000000000000000e+00 0.000000000000000000e+00 0.000000000000000000e+00 1.754299999999999926e+01
1.794399999999999906e+01 0.000000000000000000e+00 0.000000000000000000e+00 0.000000000000000000e+00 1.794399999999999906e+01 0.000000000000000000e+00 0.000000000000000000e+00 0.000000000000000000e+00 1.794399999999999906e+01
1.776099999999999923e+01 0.000000000000000000e+00 0.000000000000000000e+00 0.000000000000000000e+00 1.776099999999999923e+01 0.000000000000000000e+00 0.000000000000000000e+00 0.000000000000000000e+00 1.776099999999999923e+01
1.639900000000000091e+01 0.000000000000000000e+00 0.000000000000000000e+00 0.000000000000000000e+00 1.639900000000000091e+01 0.000000000000000000e+00 0.000000000000000000e+00 0.000000000000000000e+00 1.639900000000000091e+01
1.674800000000000111e+01 0.000000000000000000e+00 0.000000000000000000e+00 0.000000000000000000e+00 1.674800000000000111e+01 0.000000000000000000e+00 0.000000000000000000e+00 0.000000000000000000e+00 1.674800000000000111e+01
1.660099999999999909e+01 0.000000000000000000e+00 0.000000000000000000e+00 0.000000000000000000e+00 1.660099999999999909e+01 0.000000000000000000e+00 0.000000000000000000e+00 0.000000000000000000e+00 1.660099999999999909e+01
1.765500000000000114e+01 0.000000000000000000e+00 0.000000000000000000e+00 0.000000000000000000e+00 1.765500000000000114e+01 0.000000000000000000e+00 0.000000000000000000e+00 0.000000000000000000e+00 1.765500000000000114e+01
1.630000000000000071e+01 0.000000000000000000e+00 0.000000000000000000e+00 0.000000000000000000e+00 1.630000000000000071e+01 0.000000000000000000e+00 0.000000000000000000e+00 0.000000000000000000e+00 1.630000000000000071e+01
1.756099999999999994e+01 0.000000000000000000e+00 0.000000000000000000e+00 0.000000000000000000e+00 1.756099999999999994e+01 0.000000000000000000e+00 0.000000000000000000e+00 0.000000000000000000e+00 1.756099999999999994e+01
1.798499999999999943e+01 0.000000000000000000e+00 0.000000000000000000e+00 0.000000000000000000e+00 1.798499999999999943e+01 0.000000000000000000e+00 0.000000000000000000e+00 0.000000000000000000e+00 1.798499999999999943e+01
1.688899999999999935e+01 0.000000000000000000e+00 0.000000000000000000e+00 0.000000000000000000e+00 1.688899999999999935e+01 0.000000000000000000e+00 0.000000000000000000e+00 0.000000000000000000e+00 1.688899999999999935e+01
1.780600000000000094e+01 0.000000000000000000e+00 0.000000000000000000e+00 0.000000000000000000e+00 1.780600000000000094e+01 0.000000000000000000e+00 0.000000000000000000e+00 0.000000000000000000e+00 1.780600000000000094e+01
1.683299999999999841e+01 0.000000000000000000e+00 0.000000000000000000e+00 0.000000000000000000e+00 1.683299999999999841e+01 0.000000000000000000e+00 0.000000000000000000e+00 0.000000000000000000e+00 1.683299999999999841e+01
1.772100000000000009e+01 0.000000000000000000e+00 0.000000000000000000e+00 0.000000000000000000e+00 1.772100000000000009e+01 0.000000000000000000e+00 0.000000000000000000e+00 0.000000000000000000e+00 1.772100000000000009e+01
1.731099999999999994e+01 0.000000000000000000e+00 0.000000000000000000e+00 0.000000000000000000e+00 1.731099999999999994e+01 0.000000000000000000e+00 0.000000000000000000e+00 0.000000000000000000e+00 1.731099999999999994e+01
1.666000000000000014e+01 0.000000000000000000e+00 0.000000000000000000e+00 0.000000000000000000e+00 1.666000000000000014e+01 0.000000000000000000e+00 0.000000000000000000e+00 0.000000000000000000e+00 1.666000000000000014e+01
1.744399999999999906e+01 0.000000000000000000e+00 0.000000000000000000e+00 0.000000000000000000e+00 1.744399999999999906e+01 0.000000000000000000e+00 0.000000000000000000e+00 0.000000000000000000e+00 1.744399999999999906e+01
1.708099999999999952e+01 0.000000000000000000e+00 0.000000000000000000e+00 0.000000000000000000e+00 1.708099999999999952e+01 0.000000000000000000e+00 0.000000000000000000e+00 0.000000000000000000e+00 1.708099999999999952e+01
1.688100000000000023e+01 0.000000000000000000e+00 0.000000000000000000e+00 0.000000000000000000e+00 1.688100000000000023e+01 0.000000000000000000e+00 0.000000000000000000e+00 0.000000000000000000e+00 1.688100000000000023e+01
1.781299999999999883e+01 0.000000000000000000e+00 0.000000000000000000e+00 0.000000000000000000e+00 1.781299999999999883e+01 0.000000000000000000e+00 0.000000000000000000e+00 0.000000000000000000e+00 1.781299999999999883e+01
1.702799999999999869e+01 0.000000000000000000e+00 0.000000000000000000e+00 0.000000000000000000e+00 1.702799999999999869e+01 0.000000000000000000e+00 0.000000000000000000e+00 0.000000000000000000e+00 1.702799999999999869e+01
1.683399999999999963e+01 0.000000000000000000e+00 0.000000000000000000e+00 0.000000000000000000e+00 1.683399999999999963e+01 0.000000000000000000e+00 0.000000000000000000e+00 0.000000000000000000e+00 1.683399999999999963e+01
1.784799999999999898e+01 0.000000000000000000e+00 0.000000000000000000e+00 0.000000000000000000e+00 1.784799999999999898e+01 0.000000000000000000e+00 0.000000000000000000e+00 0.000000000000000000e+00 1.784799999999999898e+01
1.714600000000000080e+01 0.000000000000000000e+00 0.000000000000000000e+00 0.000000000000000000e+00 1.714600000000000080e+01 0.000000000000000000e+00 0.000000000000000000e+00 0.000000000000000000e+00 1.714600000000000080e+01