2.543236999999999970e+00 9.169537000000000049e+00 1.221731699999999954e+01 1.320681699999999914e+01 1.058641700000000085e+01 1.385491700000000037e+01 1.319191700000000012e+01 1.341191700000000075e+01 1.341857000000000077e+00 2.487159999999999926e-01 1.099191700000000083e+01 1.062451700000000088e+01 9.047117000000000075e+00 6.299407000000000423e+00 1.190541699999999992e+01 9.743857000000000212e+00 1.330251699999999992e+01 4.970636999999999972e+00 8.124036999999999509e+00 1.549791699999999928e+01 1.591041700000000070e+01 7.418637000000000370e+00 4.166927000000000270e+00 1.143429999999999946e+00 5.196290000000000076e-01 5.501966999999999608e+00 7.813257000000000119e+00 7.666877000000000386e+00 2.951757000000000186e+00 1.526161699999999932e+01 6.769079999999999542e-01 9.682437000000000182e+00 3.890436999999999923e+00 1.160301699999999947e+01 1.410597000000000101e+00 4.798156999999999783e+00 1.606851699999999994e+01 1.466896999999999895e+00 1.410191700000000026e+01 5.898037000000000418e+00 1.233831699999999998e+01 1.317431700000000028e+01 1.482551699999999961e+01 1.562241700000000044e+01 1.419171700000000058e+01 8.939406999999999215e+00 7.025986999999999760e+00 2.089637000000000189e+00 3.183256999999999781e+00 6.974186999999999692e+00 4.889669999999999850e-01 3.149796999999999958e+00 4.522660000000000013e-01 7.870027000000000328e+00 6.682337000000000415e+00 5.659286999999999956e+00 7.629417000000000115e+00 1.348951699999999931e+01 2.911157000000000217e+00 1.516241699999999959e+01 1.388841700000000046e+01 4.690726999999999869e+00 4.836597000000000257e+00 1.080761700000000047e+01 1.086171700000000051e+01 1.185771699999999917e+01 6.140277000000000207e+00 1.272921700000000023e+01 5.329456999999999667e+00 1.654087000000000085e+00 9.068637000000000725e+00 9.502926999999999680e+00 1.741257000000000055e+00 7.818596999999999575e+00 5.033297000000000132e+00 1.534751699999999985e+01 1.021801699999999968e+01 1.297891699999999915e+01 4.134057000000000315e+00 8.857886999999999844e+00 1.000461699999999965e+01 9.620637000000000327e+00 2.237527000000000044e+00 6.119607000000000241e+00 1.153041699999999992e+01 1.071421699999999966e+01 1.537271699999999974e+01 6.525606999999999935e+00 8.320586999999999733e+00 1.040611700000000006e+01 1.601747000000000032e+00 4.037126999999999910e+00 3.692556999999999867e+00 1.291441700000000026e+01 3.817067000000000210e+00 8.973216999999999999e+00 3.534276999999999891e+00 8.199296999999999613e+00 1.454761700000000069e+01 1.602091700000000074e+01 1.468526999999999916e+00 1.176001699999999950e+01 1.645547000000000093e+00 1.175421700000000058e+01 3.831306999999999796e+00 1.521561699999999995e+01 9.954757000000000744e+00 2.240066999999999808e+00 1.010170699999999933e+01 1.578211699999999951e+01 3.911687000000000136e+00 8.302117000000000857e+00 7.160330000000000306e-01 1.179561700000000002e+01 4.259986999999999746e+00 4.388196999999999903e+00 1.120381700000000080e+01 8.043976999999999933e+00 2.012450000000000072e-01 6.496607000000000021e+00 1.238791699999999985e+01 8.648137000000000185e+00 1.525131700000000023e+01 3.375926999999999900e+00 4.693997000000000419e+00 1.620831700000000097e+01 8.216817000000000704e+00 1.661167000000000060e+00 1.420121699999999976e+01 6.518526999999999738e+00 1.219121699999999997e+01 1.516297000000000006e+00 1.442301699999999975e+01 1.553211699999999951e+01 1.998426999999999953e+00 1.316756999999999955e+00 1.185581700000000005e+01 4.677970000000000184e-01 4.864677000000000362e+00 4.728970000000000118e-01 1.357161699999999982e+01 8.787157000000000551e+00 6.680286999999999864e+00 1.576451699999999967e+01 1.567991699999999966e+01 3.865447000000000077e+00 1.176661700000000010e+01 3.326786999999999939e+00 7.023236999999999952e+00 3.089887000000000050e+00 1.168261700000000047e+01 3.749127000000000098e+00 1.345021700000000031e+01 2.786957000000000129e+00 1.051919999999999938e-01 1.507051700000000061e+01 1.324011699999999969e+01 1.275077000000000016e+00 2.608846999999999916e+00 1.442871700000000068e+01 2.678316999999999837e+00 9.719569999999999599e-01 7.996516999999999875e+00 8.052286999999999750e+00 1.420121699999999976e+01 1.033401699999999934e+01 9.483046999999999116e+00 2.601287000000000127e+00 1.038731699999999947e+01 1.455761700000000047e+01 1.520101700000000022e+01 7.145256999999999969e+00 9.913766999999999996e+00 1.258661700000000039e+01 9.621157000000000181e+00 1.196451700000000073e+01 6.915797000000000416e+00 6.693347000000000158e+00 1.545591699999999946e+01 8.414087000000000316e+00 4.567050000000000276e-01 1.574991699999999994e+01 1.584521699999999989e+01 5.302609999999999824e-01 7.811196999999999946e+00 1.120931700000000042e+01 8.135087000000000401e+00 1.633371700000000004e+01 2.047387000000000068e+00 1.762496999999999980e+00 4.191436999999999635e+00 1.093391699999999922e+01 4.056969999999999743e-01 1.626011700000000104e+01 2.171546999999999894e+00 1.212547000000000041e+00 5.703206999999999915e+00 5.521917000000000186e+00 3.634917000000000176e+00 1.299061700000000030e+01 5.199086999999999570e+00 6.929659999999999709e-01 1.352031700000000036e+01 1.050731700000000046e+01 1.561301699999999926e+01 6.248536999999999786e+00 1.204801699999999975e+01 4.065006999999999593e+00 4.650957000000000008e+00 3.997396999999999867e+00 9.312087000000000003e+00 4.721877000000000102e+00 1.012749699999999997e+01 4.640960000000000085e-01 1.216171699999999944e+01 2.241966999999999821e+00 1.387921700000000058e+01 4.588716999999999935e+00 7.568116999999999983e+00 7.563587000000000060e+00 1.315591700000000053e+01 7.654976999999999698e+00 8.614846999999999255e+00 9.504706999999999795e+00 5.939517000000000380e+00 1.126881700000000031e+01 3.483376999999999946e+00 1.100681699999999985e+01 5.828057000000000265e+00 5.931667000000000023e+00 9.807926999999999396e+00 5.567416999999999838e+00 5.180577000000000432e+00 4.323799999999999866e-02 2.840497000000000050e+00 1.145091700000000046e+01 1.533291700000000013e+01 6.308497000000000021e+00 3.269137000000000182e+00 4.438006999999999813e+00 6.912456999999999852e+00 7.551839999999999664e-01 4.287976999999999705e+00 6.539767000000000330e+00 1.015289699999999939e+01 5.351567000000000185e+00 1.850686999999999971e+00 1.003934000000000104e+00 5.847336999999999563e+00 5.567357000000000333e+00 6.873947000000000251e+00 1.470561700000000016e+01 1.308371700000000004e+01 1.461851700000000065e+01 1.555531700000000050e+01 2.911496999999999780e+00 2.533687000000000022e+00 1.557541699999999985e+01 4.463597000000000037e+00 1.610771700000000095e+01 9.630157000000000522e+00 2.960887000000000047e+00 1.400481699999999918e+01 1.098501699999999914e+01 4.869146999999999892e+00 1.217861699999999914e+01 9.453409999999999869e-01 1.028731699999999982e+01 1.218821699999999986e+01 1.415741700000000058e+01 1.542041700000000048e+01 7.755097000000000129e+00 1.415071700000000021e+01 1.225197000000000092e+00 1.835636999999999963e+00 3.341566999999999954e+00 1.578161700000000067e+01 1.564171699999999987e+01 1.181281700000000079e+01 8.003707000000000349e+00 4.606657000000000224e+00 3.140356999999999843e+00 9.406456999999999624e+00 5.112856999999999985e+00 1.419191700000000012e+01 3.951417000000000179e+00 3.009577000000000169e+00 1.325301699999999983e+01 1.563801699999999961e+01 3.140166999999999931e+00 1.576481700000000075e+01 1.234031700000000065e+01 1.116511700000000040e+01 2.211987000000000148e+00 1.448411699999999946e+01 8.249266999999999683e+00 5.112300000000000177e-02 6.386517000000000444e+00 1.496671699999999916e+01 1.415861699999999956e+01 7.002777000000000029e+00 8.014357000000000397e+00 6.559217000000000297e+00 8.949837000000000486e+00 4.245237000000000371e+00 7.698096999999999746e+00 8.029726999999999393e+00 1.274041700000000077e+01 3.454366999999999965e+00 2.640337000000000156e+00 1.505111699999999963e+01 6.397757000000000360e+00 3.504366999999999788e+00 1.239431699999999914e+01 1.283901700000000012e+01 1.154401700000000019e+01 7.624166999999999916e+00 1.170041699999999985e+01 4.735737000000000307e+00 4.428847000000000200e+00 1.589171699999999987e+01 4.229116999999999571e+00 1.633711699999999922e+01 1.479351699999999958e+01 6.556967000000000212e+00 7.127417000000000336e+00 1.002357699999999952e+01 8.323517000000000721e+00 6.794160000000000199e-01 1.314821700000000071e+01 1.325931699999999935e+01 1.479199999999999959e-01 1.742237000000000036e+00 1.346851700000000029e+01 1.548861699999999963e+01 1.472011700000000012e+01 8.838006999999999280e+00 6.089527000000000356e+00 1.040581700000000076e+01 1.208696999999999910e+00 1.912317000000000045e+00 4.844306999999999697e+00 5.209266999999999648e+00 5.198947000000000429e+00 1.074261699999999919e+01 1.383771699999999960e+01 2.297096999999999944e+00 2.105256999999999934e+00 5.910499999999999782e-02 2.406197000000000141e+00 1.487691700000000061e+01 6.679509999999999614e-01 8.475536999999999210e+00 4.655776999999999610e+00 1.396066999999999947e+00 1.039801699999999940e+01 1.022671700000000072e+01 7.736977000000000437e+00 1.627641699999999858e+01 7.389940000000000397e-01 2.789447000000000010e+00 1.375611699999999971e+01 5.907956999999999681e+00 3.225979999999999959e-01 1.274911700000000003e+01 7.823390000000000066e-01 2.363969999999999960e-01 5.484187000000000367e+00 6.473897000000000013e+00 8.759306999999999732e+00 6.109766999999999726e+00 3.054167000000000076e+00 3.634526999999999841e+00 1.200291700000000006e+01 1.811389999999999945e-01 5.538536999999999821e+00 6.567647000000000013e+00 1.613281699999999930e+01 1.226331700000000069e+01 4.303906999999999705e+00 7.890146999999999800e+00 1.572951699999999953e+01 1.511051699999999975e+01 1.493621699999999919e+01 7.256770000000000165e-01 8.165767000000000664e+00 9.826657000000000863e+00 4.397547000000000317e+00 3.982816999999999830e+00 1.250481699999999918e+01 1.553631700000000038e+01 2.692476999999999787e+00 1.128241700000000058e+01 7.665197000000000038e+00 9.142986999999999753e+00 1.358221699999999998e+01 9.209367000000000303e+00 1.506421699999999930e+01 1.546991700000000058e+01 4.803476999999999997e+00 1.348401699999999970e+01 5.308497000000000021e+00 8.702306999999999348e+00 8.094946999999999449e+00 6.205136999999999681e+00 1.263741699999999923e+01 8.242886999999999631e+00 1.172921700000000023e+01 6.209257000000000026e+00 4.970397000000000176e+00 1.590117000000000003e+00 7.024427000000000199e+00 9.190367000000000175e+00 1.132451700000000017e+01 7.860147000000000439e+00 1.239111699999999949e+01 2.083927000000000085e+00 5.867596999999999952e+00 1.101641700000000057e+01 1.246437000000000017e+00 9.878040000000000154e-01 3.895947000000000049e+00 1.184881700000000038e+01 2.668096999999999941e+00 1.354351699999999958e+01 1.257231699999999996e+01 7.022527000000000186e+00 1.596151700000000062e+01 7.264287000000000383e+00 8.332337000000000771e+00 7.113166999999999796e+00 8.049420000000000464e-01 9.440056999999999476e+00 3.412126999999999910e+00 6.628847000000000378e+00 1.118444999999999911e+00 1.072821700000000078e+01 4.565146999999999622e+00 6.888727000000000267e+00 1.338391700000000029e+01 3.845766999999999936e+00 1.186587000000000058e+00 8.489566999999999197e+00 1.198581700000000083e+01 2.951626999999999779e+00 8.804937000000000680e+00 8.912176999999999794e+00 1.024701699999999960e+01 7.357726999999999684e+00 1.175391699999999950e+01 8.715977000000000530e+00 6.106150000000000189e-01 1.072751700000000064e+01 8.893247000000000568e+00 1.258721700000000077e+01 7.938876999999999740e+00 1.311981699999999940e+01 7.769317000000000029e+00 1.613161699999999854e+01 2.800987000000000116e+00 3.816956999999999933e+00 4.062297000000000047e+00 1.807177000000000033e+00 1.161671699999999952e+01 1.840926999999999980e+00 1.241711699999999929e+01 1.225061700000000009e+01 1.328786999999999940e+00 3.681667000000000023e+00 7.506886999999999865e+00 1.595356999999999914e+00 1.157731700000000075e+01 1.487721699999999991e+01 1.579541700000000048e+01 9.240256999999999721e+00 1.063291700000000084e+01 6.488297000000000203e+00 9.680327000000000126e+00 1.602271700000000010e+01 2.354547000000000168e+00 1.594461699999999915e+01 6.590366999999999642e+00 1.335461699999999929e+01 3.608120000000000216e-01 1.615871699999999933e+01 7.242319999999999869e-01 1.623271700000000095e+01 1.245061699999999938e+01 1.027031700000000036e+01 4.754046999999999912e+00 1.228291699999999942e+01 1.234911699999999968e+01 2.831656999999999869e+00 4.284836999999999563e+00 1.044741699999999973e+01 8.756187000000000609e+00 2.945886999999999922e+00 1.432861699999999949e+01 1.589021699999999981e+01 6.737796999999999592e+00 1.090091699999999975e+01 1.372891699999999915e+01 4.855236999999999803e+00 3.639987000000000084e+00 1.126731700000000025e+01 9.275337000000000387e+00 1.549651700000000076e+01 3.826566999999999830e+00 1.509031700000000065e+01 1.068581700000000012e+01 1.857966999999999924e+00 6.746817000000000064e+00 6.052177000000000362e+00 1.101501700000000028e+01 2.248296999999999990e+00 5.587587000000000081e+00 6.851246999999999865e+00 6.719356999999999580e+00 6.853847000000000023e+00 8.403876999999999597e+00 3.823827000000000087e+00 1.888417000000000012e+00 1.091991699999999987e+01 5.816999999999999948e-02 4.784266999999999825e+00 1.483791699999999913e+01 9.045567000000000135e+00 9.829909999999999481e-01 1.403201699999999974e+01 4.667126999999999803e+00 9.058827000000000851e+00 1.557671700000000037e+01 3.393276999999999877e+00 7.808100000000000041e-01 6.937507000000000090e+00 1.534551699999999919e+01 1.530051699999999926e+01 1.461956999999999951e+00 5.758980000000000210e-01 2.615676999999999808e+00 5.735166999999999682e+00 5.343246999999999858e+00 8.521036999999999750e+00 3.534426999999999985e+00 8.219959999999999489e-01 9.203326999999999813e+00 1.429861700000000013e+01 4.500287000000000148e+00 6.208016999999999896e+00 1.628991699999999909e+01 1.013446700000000078e+01 2.951007000000000158e+00 1.750500000000000111e-01 1.459161699999999939e+01 1.127301699999999940e+01 1.101521699999999981e+01 1.049381699999999995e+01 2.486577000000000037e+00 9.040806999999999150e+00 7.571657000000000082e+00 1.476481700000000075e+01 5.415526999999999980e+00 1.335421700000000023e+01 1.248847000000000040e+00 9.827837000000000600e+00 3.612887000000000182e+00 1.074741700000000044e+01 1.449121700000000068e+01 3.866747000000000156e+00 1.507911700000000010e+01 9.841357000000000355e+00 8.286727000000000842e+00 2.784266999999999825e+00 1.484781699999999915e+01 9.050789999999999669e-01 1.425961700000000043e+01 3.758846999999999827e+00 5.747757000000000005e+00 3.295666999999999902e+00 1.237991700000000073e+01 3.133137000000000061e+00 1.446061699999999917e+01 1.730876999999999999e+00 1.092391699999999943e+01 1.572141700000000064e+01 1.356391700000000000e+01 1.437381700000000073e+01 2.428207000000000004e+00 6.896917000000000186e+00 7.135607000000000255e+00 1.420621700000000054e+01 5.867576999999999821e+00 1.136471700000000062e+01 4.991207000000000171e+00 4.961127000000000287e+00 3.987727000000000022e+00 4.792426999999999992e+00 2.719736999999999849e+00 7.715576999999999686e+00 4.087386999999999659e+00 1.506511700000000076e+01 4.902886999999999773e+00 1.197621700000000011e+01 1.366711699999999929e+01 1.364021699999999981e+01 1.626591700000000174e+01 7.819707000000000185e+00 4.889337000000000266e+00 7.487116999999999578e+00 1.315321699999999971e+01 9.215206999999999482e+00 1.420381700000000080e+01 6.578977000000000075e+00 2.096727000000000007e+00 5.048976999999999826e+00 1.523787000000000003e+00 1.587181700000000006e+01 5.961966999999999572e+00 2.840427000000000035e+00 5.790366999999999820e+00 4.109490000000000087e-01 7.257717000000000418e+00 1.417881700000000045e+01 8.722576999999999359e+00 9.300046999999999287e+00 1.228651699999999991e+01 4.144987000000000421e+00 8.701297000000000281e+00 5.470176999999999623e+00 1.298141700000000043e+01 1.469691699999999912e+01 1.537441699999999933e+01 1.261471700000000062e+01 7.024897000000000169e+00 3.491929999999999756e-01 2.924926999999999833e+00 2.844657000000000213e+00 1.215661700000000067e+01 4.252616999999999869e+00 9.710687000000000069e+00 4.398806999999999690e+00 8.673406999999999201e+00 1.010269699999999915e+01 1.440401699999999963e+01 3.948747000000000007e+00 5.719407000000000352e+00 1.579421699999999973e+01 9.365676999999999808e+00 1.559791700000000070e+01 8.949906999999999613e+00 1.348531700000000022e+01 1.029381700000000066e+01 1.163311700000000037e+01 1.275441700000000012e+01 1.572881699999999938e+01 1.058921699999999966e+01 1.152251700000000056e+01 7.903597000000000428e+00 9.723387000000000668e+00 4.864067000000000363e+00 1.254071700000000078e+01 1.736417000000000099e+00 3.800927000000000167e+00 4.113559999999999994e-01 1.291021699999999939e+01 3.358197000000000099e+00 2.152587000000000028e+00 1.319861700000000049e+01 1.022541700000000020e+01 3.256397000000000208e+00 3.305236999999999981e+00 1.437611700000000070e+01 6.142846999999999724e+00 9.159627000000000407e+00 6.236716999999999622e+00 5.287926999999999822e+00 8.630677000000000376e+00 9.882657000000000025e+00 2.664096999999999937e+00 9.009366999999999237e+00 1.376211699999999993e+01 9.472009999999999597e-01 5.502926999999999680e+00 8.984966999999999260e+00 1.562361699999999942e+01 2.972710000000000075e-01 1.089351699999999923e+01 2.612166999999999906e+00 1.381917000000000062e+00 6.870226999999999862e+00 1.355841700000000039e+01 2.227866999999999820e+00 1.625621699999999947e+01 2.730087000000000153e+00 3.362896999999999803e+00 2.813320000000000265e-01 7.035527000000000086e+00 1.268801700000000032e+01 6.372596999999999845e+00 3.172067000000000192e+00 1.548941699999999955e+01 7.819836999999999705e+00 9.309526999999999219e+00 6.533799999999999608e-01 6.640627000000000280e+00 1.937667000000000028e+00 1.537801699999999983e+01 1.526551699999999911e+01 1.084811700000000023e+01 4.805006999999999806e+00 1.392431700000000028e+01 3.255620000000000180e-01 1.136203000000000074e+00 1.284231699999999954e+01 4.446806999999999732e+00 7.259636999999999674e+00 1.387531700000000079e+01 1.029191699999999976e+01 1.288961699999999944e+01 6.245947000000000138e+00 1.249941699999999933e+01 1.157791699999999935e+01 1.481511700000000076e+01 1.035901699999999970e+01 1.353111700000000006e+01 1.438461700000000043e+01 7.372307000000000166e+00 3.956256999999999913e+00 1.598021699999999967e+01 1.569601699999999944e+01 1.616561700000000101e+01 2.864587000000000216e+00 6.400706999999999702e+00 1.345481700000000025e+01 1.393531699999999951e+01 7.451487000000000194e+00 1.629731699999999961e+01 5.102017000000000024e+00 3.235116999999999798e+00 7.836536999999999864e+00 1.589041699999999935e+01 1.454661699999999946e+01 1.107421700000000087e+01 1.342021699999999917e+01 5.892857000000000234e+00 1.602021699999999882e+01 1.314341699999999946e+01 9.492957000000000534e+00 5.570166999999999646e+00 1.545751699999999929e+01 7.216886999999999830e+00 1.717756999999999978e+00 1.553021700000000038e+01 3.505666999999999867e+00 9.590616999999999948e+00 1.123861699999999963e+01 4.587096999999999980e+00 1.763746999999999954e+00 1.311881699999999995e+01 1.196951699999999974e+01 3.484357000000000149e+00 1.216731700000000060e+01 1.233671700000000016e+01 3.312066999999999872e+00 1.003968700000000069e+01 1.123461700000000008e+01 1.034811700000000023e+01 1.085291699999999970e+01 1.342041700000000048e+01 1.048461700000000008e+01 2.614386999999999794e+00 1.554391700000000043e+01 7.513576999999999728e+00 1.550591700000000017e+01 1.001035700000000084e+01 1.136351699999999987e+01 1.504491699999999987e+01 7.324476999999999904e+00 4.443756999999999735e+00 4.234537000000000440e+00 2.709537000000000084e+00 1.171331699999999998e+01 1.395281699999999958e+01 2.433567000000000036e+00 1.288057000000000007e+00 1.536261700000000019e+01 8.004790000000000516e-01 5.294247000000000369e+00 4.326666999999999597e+00 6.981097000000000108e+00 1.140641699999999936e+01 1.298281700000000072e+01 1.081277999999999961e+00 3.086956999999999951e+00 2.803817000000000004e+00