-7.780461740497298888e+04
-7.780125759012799244e+04
-7.780040150132100098e+04
-7.779327343541840673e+04
-7.781032723313743190e+04
-7.778800109841937956e+04
-7.778403743170300731e+04
-7.779984113849676214e+04
-7.778593455721890496e+04
-7.779366437746679003e+04
-7.779393092896528833e+04
-7.779153944090817822e+04
-7.778378782600325940e+04
-7.779649742817680817e+04
-7.779578817987853836e+04
-7.778525715990395111e+04
-7.779902102653129259e+04
-7.779833282720026909e+04
-7.779760397161163564e+04
-7.778976531700862688e+04
-7.778490999928498059e+04
-7.778359017555577157e+04
-7.779907344179980282e+04
-7.778808055351708026e+04
-7.779211103462416213e+04
-7.779745369374462462e+04
-7.780426077126932796e+04
-7.780857880053296685e+04
-7.780177888143667951e+04
-7.780881401766599447e+04
-7.779611834979680134e+04
-7.779629979757884576e+04
-7.781062467089791608e+04
-7.779725967202012544e+04
-7.779697541101329261e+04
-7.778240482616360532e+04
-7.779789477163355332e+04
-7.779436569787868939e+04
-7.779273006799041468e+04
-7.780362062763009453e+04
-7.779262717753127799e+04
-7.780345118109263422e+04
-7.778401212922348350e+04
-7.779562418666963640e+04
-7.780434053969246452e+04
-7.779364619903010316e+04
-7.777707462713701534e+04
-7.779903580281938775e+04
-7.780488034901520587e+04
-7.778802960187962162e+04
-7.780425385851667670e+04
-7.780511992894542345e+04
-7.779428867804387119e+04
-7.780145011097523093e+04
-7.779233343198246439e+04
-7.779564303629592177e+04
-7.778813380653703643e+04
-7.778732623807011987e+04
-7.778218298075180792e+04
-7.779091532969661057e+04
-7.778518899525745655e+04
-7.781145018471522781e+04
-7.779227657378956792e+04
-7.779087508196945419e+04
-7.778511285198508995e+04
-7.780599188767212036e+04
-7.779052591040518018e+04
-7.779826469243533211e+04
-7.777794379288355412e+04
-7.779707652551747742e+04
-7.779689694284972211e+04
-7.778404455663819681e+04
-7.780225524958860478e+04
-7.779400410689695855e+04
-7.778998950828514353e+04
-7.779517994605080457e+04
-7.779239767594412842e+04
-7.778769258404251013e+04
-7.780430006529376260e+04
-7.779357808841213409e+04
-7.779462135946420312e+04
-7.778432023447735992e+04
-7.779953236403386109e+04
-7.779453876704230788e+04
-7.780280035084568954e+04
-7.781704815182836319e+04
-7.780350855868865619e+04
-7.779969043654184497e+04
-7.779028722000261769e+04
-7.780091154130069481e+04
-7.779756484590326727e+04
-7.779765608129408793e+04
-7.778153819773408759e+04
-7.780616069389885524e+04
-7.780424176471366081e+04
-7.779472818304064276e+04
-7.780741714130871696e+04
-7.779291858690233494e+04
-7.778538374685417512e+04
-7.780204232259150012e+04
-7.778540773772538523e+04
-7.779129284378215380e+04
-7.779559581521218934e+04
-7.779947473269178590e+04
-7.779131442866049474e+04
-7.779446923102757137e+04
-7.779384788704405946e+04
-7.780572667698831356e+04
-7.780402517759805778e+04
-7.778776190682414745e+04
-7.780469530811479490e+04
-7.779457449824425566e+04
-7.780853524317978008e+04
-7.780507564501219895e+04
-7.779627594893808418e+04
-7.778630981005422655e+04
-7.779865224440299789e+04
-7.780051653035558411e+04
-7.779324331069178879e+04
-7.780094359310754226e+04
-7.779045685560052516e+04
-7.780588632145918382e+04
-7.779018891264652484e+04
-7.779602577464112255e+04
-7.777889579450759629e+04
-7.781019274850202783e+04
-7.778222619678884803e+04
-7.779042375227855518e+04
-7.777985108451494307e+04
-7.778613955116580473e+04
-7.778921662116670632e+04
-7.779218543168947508e+04
-7.778760893149004551e+04
-7.778842132741271053e+04
-7.778657566617464181e+04
-7.779722635014905245e+04
-7.780773222521273419e+04
-7.778633698152209399e+04
-7.777696866811616928e+04
-7.779290251379323308e+04
-7.779061376691564510e+04
-7.780385081725266355e+04
-7.779069617326320440e+04
-7.778955211765106651e+04
-7.778951801059990248e+04
-7.779488196047641395e+04
-7.779911700854766241e+04
