8.245939896368678634e-02 -2.046386426639770217e+00 9.194075403117417666e-01 3.907068227236887292e+00 1.053065834978907267e+00 3.470015620694000269e+00 1.240390256147065662e+00 1.862273827806183446e+00 -1.994004823384336378e+00 2.098945950248672782e-02 3.891343359002627178e+00 -6.800249606925754531e-01 3.953678731859452622e+00 -2.694187234527631314e-01 -1.942418719512761127e+00 3.110917325783199683e+00 -2.903413342675306708e-01 -2.482941267569486410e+00 -4.063101806125025917e+00 2.362558093842009654e+00 4.183981202803649602e+00 -5.720488005616512162e+00 2.304986975536864158e+00 -3.734552333060561224e+00 7.402854531267322180e-01 8.495851144303621927e-02 -8.803360250018797961e-01 9.799853069022276264e-01 -1.658520056079339389e+00 9.904553540610824269e-01 1.999169655841658511e+00 -2.250537690948207104e+00 6.962267171806113986e+00 -6.688499169886202855e-01 -4.372316581818393111e+00 -4.074513905560047000e+00 -4.013861062751045594e+00 -3.603625064397062872e+00 -3.861682082040932329e+00 2.565306564149691493e+00 1.463029810595940283e+00 -1.199228433794290893e+00 -5.520225278050635787e+00 4.068059921871093110e+00 -4.684812599637423247e+00 -7.350666274985599991e-01 8.946411299531188688e-02 2.638743961374657165e-01 2.605415776781225823e+00 5.758695630192772086e+00 2.157140304011630594e+00 -9.766546995917858576e-01 2.940775588462255730e+00 1.843817419347580699e+00 3.344039782907797687e+00 -1.106734018362599103e+00 -7.854725949215537462e-01 6.426123212794997430e-01 3.451231139444898233e+00 -1.972212151187869411e+00 1.089153327713118236e+00 -5.232622168876219781e-01 3.803039842070255361e+00 -6.940698699823844020e-01 1.697632709043182198e+00 7.095859646226909678e-01 -8.991981535728710284e-01 9.297073804272499853e-01 -3.422199782809788982e+00 1.350785207487941397e+00 2.587082781284566035e+00 1.767728186102861088e+00 2.151891653584322217e+00 -3.803188451845261220e+00 3.785682323193621523e-01 3.720595355506136404e+00 -4.224841177620338506e+00 -5.728897570531590766e+00 -1.353417760232391842e+01 4.404077421795145497e+00 1.157063366905053126e-01 4.945367701319292486e+00 -3.248297035473626693e+00 1.589620142088484789e+00 -5.388078792167274145e+00 1.028275256248570635e+00 -2.739405229562938970e+00 -2.104930450461567570e+00 4.857895679218013463e+00 2.882341607864857824e+00 -4.085787165412882338e+00 1.832257738578902506e+00 1.225393010167595137e-01 -2.567241576548825677e+00 2.788033536113275979e+00 6.583690711955955122e-01 -2.406812953553485013e+00 -2.344505348613095119e+00 -4.856803988725491017e-01 -3.016564002612238227e+00 -2.735108401604616990e+00 -5.143765350497802480e+00 1.076237132804414687e+00 3.962395286517364834e+00 1.901066635510323843e+00 -6.053278256585749695e+00 -2.227310857289825474e+00 -4.498074904259170559e+00 1.318029350505521391e+00 -1.668316474154253992e+00 -3.586117907304072983e+00 -9.537451400897333231e-01 2.651568625003252744e-01 7.604164726347692138e+00 -2.245451534254123249e+00 5.033978722215172175e-01 6.452687852853268291e-01 -2.424656925188444667e+00 -1.668778758540866214e+00 -2.103072571163647986e+00 4.883079636764544595e+00 -1.312773500988766440e+00 4.454513728237949888e-01 -9.211003547730624019e-01 -4.065904823023160475e+00 2.202396865597545439e+00 -9.524091947766982758e-01 -2.346155482758411015e+00 -1.294273897993483136e+00 3.491831432820831527e+00 1.942305590964313211e+00 2.993726434004652770e+00 -4.678696973152464800e+00 2.266829744586731366e+00 3.947990936975897203e+00 9.692689480401611712e-01 -2.342003150809697676e+00 6.135130875153215202e-01 -1.063632041403942852e+00 -6.809135340185663576e-01 3.225773141477646710e+00 9.897575566054285234e-01 1.316853842043012701e+00 3.447401738079936440e+00 4.269168028226281386e+00 -1.742911896338786182e+00 -4.904451676449055331e-01 1.150822784796126319e+00 5.197115231283815362e-01 -2.951692493387479299e+00 -3.147133373686101382e-02 1.248854328453669060e+00 3.430021079272937978e+00 3.055559413262235235e+00 -5.436581628872969141e+00 -2.594700960581183269e-01 -2.276601994289932041e+00 -1.111954386652795668e+00 6.891590625383952062e-01 -3.039033389216693859e+00 -1.243022037560503890e+00 -7.285463093425619263e-01 -5.009027706634308963e+00 -9.670228321327952736e-01 -8.843592875612275028e-01 -2.012392326272520737e+00 -4.562109776446089171e+00 4.764655643807915175e-01 4.668359594927698808e+00 -3.367826602880996112e-01 1.885489348609720395e+00 -1.450529105992445222e-01 2.039185794531060303e+00 -9.260548709744065299e-02 -4.093790495994897860e+00 -2.497190836687851245e+00 5.338484779189731633e-01 -3.157263520978937366e-01 -4.159181882321841606e+00 3.126651964210280799e+00 9.255499062717889025e-01 -4.422900469594854833e+00 -4.516884582321336161e+00 -3.653917389050934439e+00 -2.313515325427813352e+00 -9.391744915820464001e+00 2.528620004329381832e+00 -6.987755033771428925e-01 5.146243379929487105e-01 -5.752544008260579211e+00 -3.456185141425567320e-01 2.565192921380568869e+00 2.170726014238876012e+00 1.252872963026943731e+00 -4.344864396875481205e+00 -2.583842162592207892e+00 5.593512522838570700e-01 9.784899531800160810e-01 -3.750223208123971474e+00 -5.411411555284657560e-01 -2.323876357803618120e+00 3.133028300577345160e-01 -6.607046615003702161e-01 1.754606817144926945e+00 -1.278990745318844491e+00 -3.256710714154103403e+00 4.470973932037122900e+00 -3.490310882285557081e+00 -2.488309217193340306e+00 1.116613740186825687e+00 1.658646554365330816e+00 8.093468324094623689e-01 -3.853404157618593118e+00 3.517643253811248094e+00 5.438926989370564513e+00 -3.059052000085227707e+00 -4.636042882401526732e+00 -1.457589355856944713e-01 -8.638907336022759453e-03 2.401039798037917894e+00 8.054701227424221344e-02 1.006664103950295069e-01 3.531138461199734735e+00 -5.898609933589107346e-01 1.428282376940162468e+00 1.790443370189853445e+00 -3.607643698970338098e-01 -2.185149904165985646e+00 6.771941758780036791e-01 4.283237105887803819e-01 -2.564480725746021594e+00 4.957147468536769352e+00 6.128801332867555907e+00 6.143737900807403562e+00 3.632989121808743782e+00 3.098885076214414003e+00 -1.333610236950848238e+00 -1.505518322289604027e+00 3.916085600989535731e+00 3.204482862880423166e+00 9.475847764060694178e-01 1.201871528062574024e+00 -2.694934911388737309e+00 1.882518695771613126e+00 2.118020966179015918e+00 -1.870454564520992236e+00 -2.821878512484844226e+00 -2.291047481485381621e+00 -1.760502357181087829e+00 1.331760585183724865e+00 2.444432309677815329e+00 -1.533981979299774978e-01 -4.930366341574424105e+00 1.943995834322259919e-01 7.852309112044150163e-01 -1.180663010552638337e+00 5.508768955637585174e-01 -2.297041237670422564e+00 -3.985682283994694153e+00 -2.026310223055663773e+00 2.086515693877620148e+00 3.405477840687162749e-01 1.263497790608901994e+00 1.963199919641968716e+00 -3.541511834871734710e+00 -1.892790253750009422e+00 -3.329842150077583884e+00 2.122039600752290422e-01 4.884368273775501201e+00 -5.326921498876330929e+00 3.869334199902084048e+00 -1.368096960724521249e+00 -1.122823469055266976e+00 5.530721036243227973e-01 -1.868281467949442831e+00 2.056776769594037102e+00 -2.340005403488242042e+00 -3.602115826716633329e+00 -1.988747431205556859e+00 3.196274872469852202e+00 3.463037131916787636e+00 -2.803601567041733578e+00 6.383355479274936073e+00 -1.806369812928621255e-01 -2.949516311491881204e+00 4.114865830350069031e-01 -4.619068457927591353e+00 3.476900521308405434e+00 -2.300968855184263973e+00 2.511395154386836470e+00 -3.126008674146151467e+00 9.583073059162329210e-01 -5.139172845651492072e-02 -8.021014631020479957e-01 -2.018367570513270037e-02 -4.782065613193374531e+00 -4.330599401136874249e+00 -1.441461852834344803e+00 -1.953635415091371730e+00 -2.140094917084578441e+00 3.294945592426125280e+00 1.274559191543734649e+00 -2.468727693898355113e+00 -1.667587823458114515e+00 -1.160350265458139907e+00 -4.540097017800824197e+00 -6.183776150985820230e-01 -1.915322889497460546e-01 -7.316779132518700379e-01 -2.326803301884369901e+00 -1.556457022331652507e+00 1.615274611552423467e+00 -4.787992520690696807e+00 3.731649043130847332e+00 2.817159509352541669e+00 6.139542888542685040e-01 1.744945124886799981e+00 4.159474473885782508e-01 -4.585956760238235397e+00 -3.791484789287649981e+00 -2.261862372868518101e+00 -1.142574170952249002e+00 -2.834960286450821099e-01 -2.005984622444295873e+00 2.695204363022313476e+00 -9.213530428126411209e+00 -7.211502733774418639e-01 -4.933474291332692885e-01 2.485971055785191730e+00 2.717459319605392221e+00 3.077555202625234188e+00 -1.511279650729651758e+00 1.847397423685282369e+00 1.278385507584648195e+00 8.078581635560226903e-01 -2.455776017763092955e+00 4.964286394164507676e-01 -4.168690851039563938e+00 3.156261304883823282e+00 1.445202294022573053e+00 -2.721851278388545126e+00 6.072997591021571384e-02 -2.542024194658435432e-01 2.984428809984258080e-01 9.233973785272299173e-01 3.203925447668980020e+00 3.774567957529288087e+00 8.804594379638229773e-01 2.943118377856476897e+00 5.036026863162754275e+00 4.656533033628818430e+00 -2.439753929978819347e+00 1.807507269061197297e+00 -1.026264139189571489e+00 7.595908399193693761e-01 -1.290381247485525185e+00 -3.149486961714492494e+00 1.756680154905572611e+00 -1.170095775686253115e+00 7.714986480848621264e-01 -3.468373199858806544e+00 3.626009090369507692e+00 2.654544420048107423e+00 -2.031761990649503247e+00 -1.306787458113847222e+00 6.086470172700368664e-02 -1.642631151449829296e+00 -2.571544575155244594e+00 4.868676315664425047e+00 -9.187616791442390074e-01 -2.014133477477269452e+00 -3.892048869768401920e-01 1.607648204725009800e+00 -5.580739281277450337e-01 -1.685207594878877613e+00 1.141164177862048046e+00 -1.104647310864409926e+00 -2.611974147267156710e+00 2.437101065517715881e+00 -7.688133877212484091e-01 -3.515150311979995834e+00 7.989899137990555289e+00 -6.685167019913736963e-01 5.512378784774423224e+00 4.489655569151271286e-01 -3.111431032237287342e-01 -1.525568300619298379e+00 1.726696461580801423e-01 2.680549588012234974e+00 -4.131032414143952280e+00 -1.707348908692833955e+00 -3.605764222404078456e+00 -4.651305980469849777e-01 6.141568918001252264e-01 3.431369880102842274e+00 -1.195357894775347818e+00 1.049946058145118544e+00 9.681967979332799512e-01 -2.842555325817074929e-01 6.464627542700595697e+00 -9.721789228386467085e-01 4.325830004378444782e-02 -3.596882602909567517e+00 2.052133871121599729e+00 2.362674821935180525e+00 -8.849655537367734359e-01 -2.080634552020352857e+00 -7.722411827392203221e-02 2.216111130993481559e+00 -2.415463173744352599e+00 -4.070923616808849843e+00 9.133824166655406529e-01 8.969263266317669681e-01 8.333316273424450360e-01 -1.485569131212163496e+00 -1.330756312205912284e+00 -2.182694500443991270e+00 -1.275834458817147521e+00 2.551894146289841458e+00 -6.012268129332030142e-01 -2.124595791726539229e+00 8.950540491549539013e-01 1.728226782308896814e+00 3.091317290543922791e+00 -1.066813524718702944e+00 -3.346620656474434963e+00 1.732550863962981191e+00 3.232392704223873370e+00 -1.587530863486921628e+00 2.364770785405515774e+00 -6.387700643976687020e-01 -1.163463357423156763e+00 -2.405865759070571208e+00 5.259922144499400432e-01 5.114001743621831020e-01 1.647077103403832066e+00 -3.635288202445611239e-01 1.068458516657270652e+00 7.181225420444357077e-01 -8.952304268463977532e-01 3.503346890611480191e+00 6.391626204607828932e+00 3.234019184218150045e+00 6.279674193063770282e+00 1.155582925582409937e+00 8.260440919397001036e-02 2.854646710763458106e+00 -2.650839974307113156e+00 -2.219119321940846490e+00 1.486996607805306292e+00 1.643458532515523096e+00 -3.927314123643665944e-01 -7.376676070935800134e+00 -2.704841372688051582e+00 -7.841453913599896741e-02 4.546682641982516815e-01 -3.201332232806148453e-02 2.096789822959390204e+00 -7.853625516971542986e-01 5.162312776015838267e+00 1.134827950707615107e+00 1.003158147389759058e+00 -1.403021800513092110e+00 -2.181598181965395788e+00 1.431023173136650728e+00 -7.097386881630955990e-01 -2.756351371899762315e-01 2.242614064570779941e+00 -9.032733524203698794e-01 4.528602643057840771e-01 7.886624600333126622e+00 1.911569078571688785e-01 -1.540620568210968599e-01 5.597837118713329119e-01 1.467873769352210145e+00 5.440639858438200971e-01 1.453061128594979712e+00 -4.067511762631795591e+00 2.221650316102031564e+00 2.928177696151230247e+00 -1.920341683283149914e+00 1.425330236046346677e+00 2.940277822849085010e-01 -9.441436116505536047e-01 -2.053797375004458858e-01 1.387865660345119823e+00 5.192507814037937708e-01 -1.952511842917014073e+00 -4.388194687813732897e-01 1.576029289654491850e+00 -1.192128588937834577e+00 1.380408432119703210e+00 1.162808034595238382e+01 9.672244066373025806e-01 -2.839468459106471165e+00 -7.405703313805511723e-01 -9.398544970023533507e-01 -8.698135273341991436e-01 1.648625421855544282e+00 2.942834013823332651e+00 4.478214159137788863e-01 -1.771870747858753925e-01 2.138376391589519587e-01 -1.919842889228629695e-02 -1.741215996553416856e+00 3.739557757108706415e+00 1.774302497429709247e+00 -3.379401710269918091e-01 1.328026314643594163e-01 -8.321468629077904966e-01 2.637623988745022352e+00 4.607607507528467927e+00 -1.956544361448507852e+00 -2.510718439978848249e+00 2.055304555802189626e+00 1.467153346186866658e+00 -2.520154389360754088e+00 2.750322134488162540e+00 -7.214181823489934642e-01 1.114849963272387834e+00 1.723955665384313551e-01 4.400033076188132775e+00 1.100214728647950668e+00 2.279278512902075171e+00 -1.000128873394728668e+00 2.630816735452506272e+00 4.590688618887406314e+00 6.110358294146496227e+00 4.393137891160232122e+00 -5.400978017793710562e-01 -3.147027958447774498e+00 1.112965344499380338e+00 -1.250027780033478697e+00 -2.576029607880529482e-01 -1.420497590144921496e+00 -3.569025726295617096e-01 -1.959623000628315292e+00 1.817505261640619096e+00 3.769919402629428706e+00 2.283453470560477427e+00 -7.514923785125228184e-01 8.690113430815685769e-01 2.165849659580096009e+00 2.128050326219598443e+00 -1.382554274995490273e-01 -7.012185658029430613e-01 -1.241495316377131841e+00 5.615289768414793992e-01 -6.285113619361416826e-02 -5.461483279269054414e+00 -9.723496441026679982e-01 -6.238127219425598113e+00 2.445290543983995146e+00 -1.602948741978348357e+00 -9.520996339304907963e-01 2.507266476589162352e+00 3.529592199630722238e+00 -7.438598010370116587e-01 2.707352312242920611e+00 1.896320892902933819e+00 1.322675334302007677e+00 2.361879836771996644e+00 -2.086679730272869904e+00 7.132251043379905786e-01 1.689119271551801527e+00 7.945542462585476473e-01 2.751206594048755338e+00 3.192710294752392652e+00 -6.256723495907736687e-01 -7.451654073302356185e-01 -7.348444841670621619e-01 2.294164687215796417e-01 -1.763944550377953169e+00 1.081582456718578555e+00 -6.110350580836374501e-01 3.207055508916263897e-01 1.725463874623393901e+00 6.712359009195216775e-01 -6.755574114702322941e-02 -2.157432895575571496e+00 -5.234056844558808708e-01 -1.791495979911093883e+00 -5.516464268035417007e+00 5.321962868909588806e-01 4.621165964059950504e+00 2.301723216914141723e+00 -2.699466223974751333e+00 -3.503106235335690766e+00 -2.672593565732297893e+00 -1.707146305746977122e+00 9.950756268238302171e-01 5.004395606796041562e-01 -4.852915451982931394e+00 3.831226848357403569e-01 3.552047702276959207e+00 -8.956232914419168800e-01 -1.986469947837030237e+00 1.898827718692404520e+00 9.884483507674814984e-01 -2.048956501572237077e+00 -2.892745320556668442e+00 4.230780426413853768e+00 1.043317239426745591e+00 1.753271386052566716e-01 -6.837952266799397494e-01 4.279495636258225488e+00 -2.623354879241016846e+00 -3.661060942664745577e-01 -1.335544220908632951e-01 -4.975023321853564440e-01 9.468530403858813616e-01 -8.149549230884304274e-01 -2.418462108719571513e-01 -3.618138942942256131e-01 -3.669494161730862736e+00 2.470818000941267467e+00 1.268323751641555530e+00 -1.423649762881220360e+00 -2.701403293256584348e+00 -8.834857294789395965e+00 -1.713504130169750228e+00 -6.667452117668142275e-01 -1.418034473112805616e+00 -2.760332982584453809e+00 -3.655060501610932988e+00 7.319571350782665409e-01 -4.794902103897490386e-01 -1.398783079491018599e-01 1.586003628082874650e+00 -1.317472449514752952e+00 1.614462657106972676e+00 -3.017241231240901794e-02 3.149026734210579104e+00 2.166457982638341218e-01 2.103394987526724158e+00 5.432679722392865784e-01 2.158818206073383372e+00 8.435101113787090155e-01 1.911497087677221651e-01 1.795686364189739370e+00 1.860982619691853301e+00 6.487020310424511216e+00 -1.576531169033060786e+00 -1.736648174299494807e+00 3.892494184872746121e+00 9.243985661809940302e-01 1.325731861992800464e+00 -8.425469760548773834e-01 -5.207389360365586306e-01 1.025466582923013625e+00 -4.349484155417555203e-02 -2.327928416720752292e-01 1.544788841000599433e+00 1.988274862405449372e+00 -1.380615148830957928e+00 -2.573127346392165560e+00 4.232997745963432479e+00 -4.787329176020251431e+00 3.090495051684976513e+00 -3.207865920699690232e+00 -1.417284739369000790e-01 -1.639547370063273890e+00 6.749151498474529332e-01 5.999813704589265217e-01 -3.357461970960468278e+00 -2.905038280007558524e-02 -1.272714681983358798e+00 2.433950949664116070e+00 -2.748920883149432934e-02 -1.032077403917770031e+00 -1.499657749259327433e-01 2.392437400369803457e-01 -1.944391784241827625e-01 -2.851441573297658572e+00 1.838865474249610443e+00 4.861301362746970334e+00 1.735895355231641624e+00 -2.201008983996359358e+00 2.002603621507727194e+00 -5.203599553992581672e-01 -1.728404702662365233e+00 -6.784915546404313158e-01 -7.112967768076281505e-01 -1.065787140251875709e+00 1.631060672046980686e+00 5.272838339408104424e+00 1.220242575889166403e+00 2.070674611770863649e+00 8.735863644249374227e-01 2.270353698870883896e+00 5.163932571141343075e-01 -2.609266261193853076e+00 4.040150594748317836e+00 9.615145002647312866e-01 2.055104009739031845e+00 -7.453700671587913940e-01 1.616310251991396996e+00 2.571548688920642700e+00 4.761984267402519677e+00 -4.990789327741806947e-01 -3.200368583261642197e+00 -5.183645220708392287e+00 -1.727798950707494008e+00 3.793028479753288718e+00 -2.646133312471005139e-01 -2.251434491804993776e+00 1.706641855265034646e+00 4.802353161474809395e-01 -1.851071016185791063e+00 -1.089323534756464928e+00 -1.268208051989733631e+00 2.659961220636063661e+00 7.203311198425440542e-01 2.668381069964637309e+00 1.417648293386058134e+00 6.334993024813452278e-01 1.927300117454046280e+00 1.389990934393916300e+00 2.636245877336656829e+00 -3.861106669105872413e+00 9.818015343254914151e-02 -4.366033319393459955e+00 -1.224265838448514110e+00 6.101228306066074601e-03 -3.391516235146665448e+00 -4.008695716073048310e+00 -1.233712072243914992e+00 5.190776433026009329e+00 4.744988245660244353e+00 -7.215986738058354000e+00 -3.470601832263230602e+00 -7.807669615267950891e-02 -1.444763663786999608e+00 1.464440317906815725e+00 -7.426642379681871464e-01 3.035631305232460164e+00 -1.559136626267844106e+00 4.317859069698939400e+00 -3.717527514960499158e-01 4.856482600803763816e+00 -6.829039794064399871e+00 -7.642491135899821764e+00 3.063103544781687226e+00 3.114576005884139853e+00 6.504618998797608853e-01 -1.762973701744000143e+00 1.129378239996473798e+00 -2.668518881105473639e+00 -1.480220721973950937e+00 2.012617040707392224e+00 1.824337711746198742e+00 -1.123082636275347435e+00 -4.705744980645011566e+00 -5.429635535998266205e-01 -2.714261895449714412e+00 2.423859368921887025e+00 9.426487721490167671e-02 -3.741623895779905978e-02 -1.397173568779009445e+00 -1.440078084998556829e+00 -3.776745167866235597e-01 -1.422792042795715528e-01 -2.666330357913681226e+00 -1.518808355628860518e+00 2.018298150722177109e+00 7.199896773145012530e-01 -1.335126673720725243e+00 -1.832119413217391246e+00 2.775317887267729766e+00 -1.038293817654983187e+00 5.168874231825817400e-01 -3.198878885966852881e+00 2.327701645403181807e+00 1.321738938453263845e+00 2.362344178041307696e+00 -6.348157074087392715e+00 6.584221387692310579e+00 -1.554641309129063620e+00 -3.165460712755338246e+00 -5.917600103108115045e-02 4.139394156536276626e+00 2.447777829387825232e-01 -7.270674106819425830e-01 -1.667152792767264691e+00 5.352358967215518959e+00 2.092261595697425314e+00 2.366905829647132808e+00 -3.570255227928976094e+00 -3.821855176559842082e+00 -1.014279197922864029e+00 -3.779258678524478388e+00 -1.090384372008501357e+00 -8.504335785437214801e-01 1.298972846519469947e-02 1.840832882551254601e-01