-3.627096617811672274e+01 2.759583608619434614e+01 -1.544721871407140412e+01 2.759583608619434614e+01 -3.488082756141270835e+01 -3.053585083021766167e+01 -1.544721871407140412e+01 -3.053585083021766167e+01 -7.913544269611232096e+01
-4.312334742894038442e+01 -3.586966152197066826e+00 -3.259186768425938396e+01 -3.586966152197066826e+00 -5.981044771462773468e+01 -7.453305669315413695e+01 -3.259186768425938396e+01 -7.453305669315413695e+01 -1.076316754114838119e+02
-9.118121219203469252e+01 1.519913442641756163e+01 4.104997351384316318e+01 1.519913442641756163e+01 -3.784814335381219053e+01 -2.542703967355619810e+01 4.104997351384316318e+01 -2.542703967355619810e+01 -1.238019960106673381e+02
-9.233628873532704517e+01 -2.087346309961572643e+01 1.676354139081811567e+01 -2.087346309961572643e+01 -3.009118351502534239e+01 1.921634452944723037e+01 1.676354139081811567e+01 1.921634452944723037e+01 -2.503335790266569916e+01
-8.962394357867458439e+01 -1.890941783152991462e+01 2.596729787749149754e+00 -1.890941783152991462e+01 -5.150503354551506874e+01 2.411325493863612834e+01 2.596729787749149754e+00 2.411325493863612834e+01 -4.629775316347519976e+01
-7.859040180647572527e+01 -8.357842995373919948e+00 -2.508514747209694917e+00 -8.357842995373919948e+00 -4.142130963900392260e+01 4.134776383715831116e+01 -2.508514747209694917e+00 4.134776383715831116e+01 -8.495243332724504626e+01
-9.391727847332471413e+01 -1.247337065622468621e+01 2.611263757106534200e+01 -1.247337065622468621e+01 -1.013469509667018116e+02 2.359329359397053238e+01 2.611263757106534200e+01 2.359329359397053238e+01 -1.027368041321750098e+02
-6.621448331621550665e+01 -3.078177038815699618e+01 -8.713345657293158908e+00 -3.078177038815699618e+01 -1.163856398110872590e+02 -6.265660683298382994e-01 -8.713345657293158908e+00 -6.265660683298382994e-01 -2.080768195700363066e+01
-7.343483445588009317e+01 -1.903980848455426766e+01 1.874740984185817183e+01 -1.903980848455426766e+01 -5.014050096902879261e+01 -2.191084989523594473e+01 1.874740984185817183e+01 -2.191084989523594473e+01 -5.635967343743888591e+01
-2.627875005328816016e+01 -1.595160594402310217e+01 -3.185790671034447641e+01 -1.595160594402310217e+01 -1.002921818106201073e+02 -1.312607492177748902e+01 -3.185790671034447641e+01 -1.312607492177748902e+01 -4.457572400380971800e+01
-5.050140173562656543e+01 -1.448608597848176061e+01 -4.017981891955360041e+00 -1.448608597848176061e+01 -1.473148776581711843e+02 6.061445751799475978e+00 -4.017981891955360041e+00 6.061445751799475978e+00 -1.038187125053491968e+02
-6.324438876903990803e+01 -3.865773998317495597e+01 3.162444846906697293e+01 -3.865773998317495597e+01 -9.069789319580438303e+01 -1.934856940157074234e+01 3.162444846906697293e+01 -1.934856940157074234e+01 -1.025013100952849641e+02
-7.903068878757665061e+01 -2.036179304490984165e+01 6.063052721638680254e+00 -2.036179304490984165e+01 -9.368983134141690527e+01 5.823536493740150632e+01 6.063052721638680254e+00 5.823536493740150632e+01 -6.266165182897549357e+01
-9.643093860206022327e+01 1.473789825106534757e+01 -1.039738705199689583e+01 1.473789825106534757e+01 -1.085541625372069063e+02 -4.366339458859685152e+01 -1.039738705199689583e+01 -4.366339458859685152e+01 -5.100941030270541887e+01
-9.767092701668981647e+01 1.199881446368763704e+01 3.433717965566435737e+01 1.199881446368763704e+01 -1.035801030311322535e+02 2.133039799158549243e+01 3.433717965566435737e+01 2.133039799158549243e+01 -8.522542590698138554e+01
-6.875312294425891935e+01 1.050970823461179826e+01 -6.654561935985721099e+00 1.050970823461179826e+01 -5.150664565967903741e+01 4.025758640272308675e+00 -6.654561935985721099e+00 4.025758640272308675e+00 -8.569272845830369079e+01
-7.808969657218806049e+01 1.852152902050739458e+00 -2.501314904007018569e+01 1.852152902050739458e+00 -9.857241556166016494e+01 -2.501223546668309794e+01 -2.501314904007018569e+01 -2.501223546668309794e+01 -8.231961351041259434e+01
-7.205264305416379500e+01 -4.445428923958953504e+01 -3.024869921902224235e+01 -4.445428923958953504e+01 -8.952267889404735968e+01 -1.475862246641699649e+01 -3.024869921902224235e+01 -1.475862246641699649e+01 -7.785031516754511927e+01
-7.342126806025387964e+01 -2.703329914363359521e+01 1.213238176463221052e+01 -2.703329914363359521e+01 -1.346028162977767977e+02 -1.086386996361821566e+01 1.213238176463221052e+01 -1.086386996361821566e+01 -9.293602006513151537e+01
-7.558298504337000168e+01 -7.916124837879437770e+00 2.421231855086716678e+01 -7.916124837879437770e+00 -1.055008518291141968e+02 2.359221238228060358e+01 2.421231855086716678e+01 2.359221238228060358e+01 -1.051640644714759958e+02
-1.227658077574438380e+02 -1.106928381490129354e+01 1.908437762837200902e+00 -1.106928381490129354e+01 -9.901447645895756011e+01 1.636128696940763350e+00 1.908437762837200902e+00 1.636128696940763350e+00 -1.052884700405844427e+02
-9.549542165567748953e+01 8.554033057952548091e+00 -4.864880618182761296e+00 8.554033057952548091e+00 -1.155931386570309343e+02 -1.765018428225994285e+01 -4.864880618182761296e+00 -1.765018428225994285e+01 -5.298099819995999837e+01
-9.107236114772548774e+01 4.337908482188189652e+01 -1.501293246922713998e+01 4.337908482188189652e+01 -1.152247357404149426e+02 -3.408551054781995759e+01 -1.501293246922713998e+01 -3.408551054781995759e+01 -1.087335570654636001e+02
-1.121271768314886685e+02 -1.349271059587195865e+01 -6.913270356032760411e+00 -1.349271059587195865e+01 -1.294433136785428360e+02 1.722015623669572904e+01 -6.913270356032760411e+00 1.722015623669572904e+01 -3.671774042644970137e+01
-6.380257108467072058e+00 2.588446871585054154e+01 -3.210440925422811453e+00 2.588446871585054154e+01 -2.302971103255092444e+01 2.741407170327058296e+01 -3.210440925422811453e+00 2.741407170327058296e+01 -9.648282250061890863e+01
-8.192010783429769560e+01 -7.995108291211557194e+00 9.139819555524580252e+00 -7.995108291211557194e+00 -7.535817573773927336e+01 5.503347440952062897e+01 9.139819555524580252e+00 5.503347440952062897e+01 -4.589184829813545008e+01
-6.137652339808022361e+01 -2.901173049616846811e+01 -3.495458782001786613e+00 -2.901173049616846811e+01 -1.099169392657412203e+01 3.658629022175971812e+01 -3.495458782001786613e+00 3.658629022175971812e+01 -5.261414543139160571e+01
-1.302838872283863303e+01 -1.338913621784805841e+01 -1.025890506678266512e+01 -1.338913621784805841e+01 -1.738180468658143241e+01 -8.373963776406318615e+00 -1.025890506678266512e+01 -8.373963776406318615e+00 -7.541302241782550198e+01
-8.140964249970296862e+01 -1.696152896614311700e+01 3.645621840181351825e+00 -1.696152896614311700e+01 -4.763703095976082835e+01 -1.825265082221346802e+01 3.645621840181351825e+00 -1.825265082221346802e+01 -1.471576203414224437e+02
-4.409891459062469465e+01 4.062107016454078234e+01 -6.026877970622917857e+00 4.062107016454078234e+01 -1.025829802284954013e+02 4.426217610685960580e+01 -6.026877970622917857e+00 4.426217610685960580e+01 -1.276066151748443502e+02
-1.174304080897774298e+02 -2.069455103741154645e+01 -1.031050864566490866e+01 -2.069455103741154645e+01 -3.622004060644096768e+01 -1.978847200836030851e+01 -1.031050864566490866e+01 -1.978847200836030851e+01 -1.010219532538309650e+01
-4.665631271229172228e+01 1.257243610505712539e+01 2.740280086183340202e+01 1.257243610505712539e+01 -2.516342694910185784e+01 -5.914591157731326376e+00 2.740280086183340202e+01 -5.914591157731326376e+00 -5.657527949507569787e+01
-6.593327092032939163e+01 -4.644210547443980097e+00 -3.133316472552073684e+00 -4.644210547443980097e+00 -3.765096811962517620e+01 2.367686993716874966e+00 -3.133316472552073684e+00 2.367686993716874966e+00 -5.077473029065928500e+01
-7.011088210101418383e+01 1.149923244952428192e+01 -2.064371612249563270e+01 1.149923244952428192e+01 -3.740099893054618718e+01 5.637501460642050377e-01 -2.064371612249563270e+01 5.637501460642050377e-01 -5.688789445846706627e+01
-1.225170114827490835e+02 -1.558968023732284713e+00 1.248730358035452070e+01 -1.558968023732284713e+00 -1.011039510472787128e+02 -1.797874155275488661e+01 1.248730358035452070e+01 -1.797874155275488661e+01 -1.255035545408860855e+02
-3.272616414542442698e+01 8.276677930796052962e+00 1.007139053962375463e+01 8.276677930796052962e+00 -6.352710926365573130e+01 3.325536365678327666e+00 1.007139053962375463e+01 3.325536365678327666e+00 -8.666651494464439054e+01
-8.658470203556012734e+01 4.952544565978821645e+00 -1.615769200291124008e+01 4.952544565978821645e+00 -9.511989801377946208e+01 3.020555290105518864e+01 -1.615769200291124008e+01 3.020555290105518864e+01 -1.254166050871200042e+02
-8.070030015872646345e+01 1.908846504173087411e+01 4.868257540367891778e+01 1.908846504173087411e+01 -1.287450741256742788e+02 5.238797755150847557e+00 4.868257540367891778e+01 5.238797755150847557e+00 -2.511183124509805964e+01
-3.945646557020977951e+01 1.800014690148995067e+00 1.120686735514735055e+01 1.800014690148995067e+00 -1.045004894846901493e+02 2.003325940788567738e+00 1.120686735514735055e+01 2.003325940788567738e+00 -5.214867710483062524e+01
-9.626483535263386671e+01 2.673318576279380565e+01 9.072140567485417861e+00 2.673318576279380565e+01 -9.013479291269609917e+01 -7.598315338333556213e+00 9.072140567485417861e+00 -7.598315338333556213e+00 -1.925935696260775742e+01
-7.598298422723460988e+01 -3.503569525319466749e+01 -4.470113867009834507e+01 -3.503569525319466749e+01 6.358157032526667862e+00 7.222334921555313869e+00 -4.470113867009834507e+01 7.222334921555313869e+00 -6.302743820810655961e+01
-7.061399567339343264e+01 1.010232129022880265e+01 -8.320380623323121227e+00 1.010232129022880265e+01 -4.999297107035593513e+01 -2.372893540153771852e+01 -8.320380623323121227e+00 -2.372893540153771852e+01 -9.681809813395625497e+01
-6.664772928670971908e+01 -8.979327469321487953e+00 -3.680934896239514753e+00 -8.979327469321487953e+00 -3.934678909287217152e+01 1.603474076498901368e+01 -3.680934896239514753e+00 1.603474076498901368e+01 -5.531249793591700836e+01
-7.890371016063689069e+01 -2.452261003775694093e+01 -3.531292505506061552e+00 -2.452261003775694093e+01 -1.223523245413637142e+02 5.213098689467677183e+00 -3.531292505506061552e+00 5.213098689467677183e+00 -3.279715619830221129e+01
-6.910572021445119617e+01 3.036478467499892986e+01 5.955639298814625171e+00 3.036478467499892986e+01 -6.667881999530277426e+01 -1.794292962850672879e+01 5.955639298814625171e+00 -1.794292962850672879e+01 -8.189033042863685807e+01
-8.480758759097241750e+01 3.465209071435039334e+01 3.117524655823278579e+01 3.465209071435039334e+01 -3.062106293278038294e+01 -1.463863200714783552e+01 3.117524655823278579e+01 -1.463863200714783552e+01 -8.987774032791979550e+01
-5.355854045245041561e+01 -1.427504286110047982e+00 7.595149751858866205e-01 -1.427504286110047982e+00 -2.530623665849570614e+01 8.140000644649349582e+00 7.595149751858866205e-01 8.140000644649349582e+00 -4.163454168886077156e+01
-8.662997478249128847e+01 1.151381969025426066e+01 2.709926114390405871e+00 1.151381969025426066e+01 -9.303802879652772617e+01 1.247374139837448270e+00 2.709926114390405871e+00 1.247374139837448270e+00 -1.049174829414211700e+02
-7.738251486091364484e+01 3.833889625959550784e+01 -2.175119614517351252e+00 3.833889625959550784e+01 -1.147989938418828899e+02 -3.476588606972860163e+01 -2.175119614517351252e+00 -3.476588606972860163e+01 -8.973173963437604073e+01
-9.134675596527721098e+01 5.513045772108589482e+00 4.685166845864562646e+01 5.513045772108589482e+00 -1.211743217111615110e+02 -2.380292925550169159e+01 4.685166845864562646e+01 -2.380292925550169159e+01 -8.627392727583121257e+01
-5.992727607071574880e+01 -3.918537936089497720e+01 -1.224236975839552599e+01 -3.918537936089497720e+01 -5.920545048419914735e+01 1.525501961311424459e+01 -1.224236975839552599e+01 1.525501961311424459e+01 -1.187421521784499703e+02
-4.829711159486170402e+01 3.037982448998581475e+01 -1.658359387297089071e+01 3.037982448998581475e+01 -2.465629137965947137e+01 2.152876367047912645e-02 -1.658359387297089071e+01 2.152876367047912645e-02 -1.111263110883570135e+02
-1.112043769820419215e+02 -2.941306773160048493e+01 -1.422960910031064863e+01 -2.941306773160048493e+01 -8.341169569866453060e+01 -9.737482109335397595e+00 -1.422960910031064863e+01 -9.737482109335397595e+00 -1.228602589333850119e+02
-8.855907163694263318e+01 -1.205912818507060535e+01 7.433433371965326053e+00 -1.205912818507060535e+01 -1.072054160547843082e+02 -3.741757269047885526e+00 7.433433371965326053e+00 -3.741757269047885526e+00 -4.122661330287635906e+01
-4.407244394675888799e+01 7.733537545552493064e+00 3.223437471904433949e+01 7.733537545552493064e+00 -8.690585031943609806e+01 3.086164178995189289e+01 3.223437471904433949e+01 3.086164178995189289e+01 -1.006868749844966118e+02
-8.162980632476742926e+01 -2.847427785630664232e+01 2.398571869128744893e+01 -2.847427785630664232e+01 -1.547289147640094882e+02 2.710008915776638716e+01 2.398571869128744893e+01 2.710008915776638716e+01 -6.012823867700919322e+01
-1.113914451811718322e+02 -5.654025164736527387e+00 6.246059754951092557e+00 -5.654025164736527387e+00 -6.937146679426815865e+01 1.199458969515018225e+01 6.246059754951092557e+00 1.199458969515018225e+01 -5.898109773511842491e+01
-4.388081600987231923e+01 -1.530800484947495477e+01 -3.452847650243352007e+01 -1.530800484947495477e+01 -9.911644975724728113e+01 4.707628867990395349e+01 -3.452847650243352007e+01 4.707628867990395349e+01 -1.556830160256743412e+01
-6.886646667686306955e+01 1.406013340367121600e+01 -3.859237810443282513e+00 1.406013340367121600e+01 -6.991222107390655083e+01 -2.929201614887638527e+01 -3.859237810443282513e+00 -2.929201614887638527e+01 -9.129923481485982961e+01
-9.224608664843331951e+01 -1.184620316134681417e+01 -1.136483798121939159e+01 -1.184620316134681417e+01 -8.273058602398327821e+01 3.136627352590234707e+01 -1.136483798121939159e+01 3.136627352590234707e+01 -7.303540022807369780e+01
-4.172579458165814259e+01 -9.770695176671932103e+00 -6.603168627856318196e+00 -9.770695176671932103e+00 -7.156526760767675910e+01 -1.410672432028938061e+01 -6.603168627856318196e+00 -1.410672432028938061e+01 -6.518583622990470872e+01
-1.647657785922818618e+02 -8.478960001037116001e+00 -5.092072741743134401e+00 -8.478960001037116001e+00 -7.035265901316600434e+01 1.988044781784234516e+01 -5.092072741743134401e+00 1.988044781784234516e+01 -6.501604378801860662e+01
-1.385373768763664373e+02 -2.418566401065168492e+01 -1.646665887520448024e+01 -2.418566401065168492e+01 -6.567045061997356470e+01 2.051477297313395809e+01 -1.646665887520448024e+01 2.051477297313395809e+01 -6.582937828995197549e+01
-5.486331498938093176e+01 1.142147526907255362e+01 6.816237999697924543e+00 1.142147526907255362e+01 -1.175268063743572213e+02 3.148052562570861923e+01 6.816237999697924543e+00 3.148052562570861923e+01 -1.415091135668766356e+02
-5.965575561727501963e+01 2.149310883488566581e-01 -1.477005219469887898e+01 2.149310883488566581e-01 -9.166078255116549656e+01 -1.238819395473517027e+01 -1.477005219469887898e+01 -1.238819395473517027e+01 -7.936652642451313966e+01
-8.760170985813367395e+01 -5.929591287429367696e+00 -1.925798847870775887e+01 -5.929591287429367696e+00 -1.161997256774360352e+02 1.107904487481725475e+01 -1.925798847870775887e+01 1.107904487481725475e+01 -7.791645033355638361e+01
-1.100666629594169876e+01 -3.479478677223543315e+01 3.014443171438518920e+00 -3.479478677223543315e+01 -5.920051213673900747e+01 -8.882187432909942615e+00 3.014443171438518920e+00 -8.882187432909942615e+00 -6.490408242384553716e+01
-4.690764415741306692e+01 -1.833196985864008699e+00 -1.139179390660788904e+01 -1.833196985864008699e+00 -9.064189249747950328e+01 9.929248293737600761e+00 -1.139179390660788904e+01 9.929248293737600761e+00 -9.143083025182413337e+01
-3.901339479645595532e+01 -3.041892185425409778e+01 -9.640745145003039696e+00 -3.041892185425409778e+01 -3.979009612451499578e+01 -1.690747434028386564e+01 -9.640745145003039696e+00 -1.690747434028386564e+01 -9.155519856502878895e+01
-8.578135585168919874e+01 -2.473588087210481845e+01 1.721865613697840658e+01 -2.473588087210481845e+01 -1.280910472491775920e+02 -2.077899280568528795e+01 1.721865613697840658e+01 -2.077899280568528795e+01 -6.590073078689084873e-01
-6.828588715078497273e+01 2.476460584254655650e+00 3.481399812523281412e+01 2.476460584254655650e+00 -6.173197991900902082e+01 2.626399459938324910e+01 3.481399812523281412e+01 2.626399459938324910e+01 -1.140396285020802480e+01
-4.971363284749379119e+01 7.542230162044196717e+00 -1.043452131308526099e+01 7.542230162044196717e+00 -5.326456084258778390e+01 -7.699172845888845984e+00 -1.043452131308526099e+01 -7.699172845888845984e+00 -1.052149086308495640e+02
-4.599442328911478484e+01 -2.633243082559181403e+01 1.039265735153272585e+00 -2.633243082559181403e+01 -6.761527474262990722e+01 -5.543969510014236590e+01 1.039265735153272585e+00 -5.543969510014236590e+01 -4.944588605515357926e+01
-7.351347604824823634e+01 -1.807155545300639687e+01 2.843375168424689292e+00 -1.807155545300639687e+01 -4.531272887411246586e+01 2.095279778697410666e+00 2.843375168424689292e+00 2.095279778697410666e+00 -4.017615731079132502e+01
-9.024243158135216447e+01 6.924704822284853734e+00 -5.046125539217293898e+00 6.924704822284853734e+00 -1.389914266272638486e+02 1.024467413010233052e+01 -5.046125539217293898e+00 1.024467413010233052e+01 -9.734177594007371681e+01
-1.105672609101269899e+02 2.520496939441044137e+00 1.161470012303786348e+01 2.520496939441044137e+00 -4.138761235164761842e+01 -9.528207387939595208e+00 1.161470012303786348e+01 -9.528207387939595208e+00 -5.740439506596094787e+01
-8.795237180768427265e+01 2.725157421405275926e+01 2.583884621188755304e+01 2.725157421405275926e+01 -6.270900286947379243e+01 1.966338761153642922e+00 2.583884621188755304e+01 1.966338761153642922e+00 -6.777008024234288541e+01
-8.101073650367342793e+01 -2.628711650248805753e+01 5.917462902529001312e+00 -2.628711650248805753e+01 -5.540777171815336288e+01 1.532092049410012891e+01 5.917462902529001312e+00 1.532092049410012891e+01 -8.882699686915191251e+01
-8.101927591859427480e+01 5.141544430216641537e+00 -3.175569808891675549e+01 5.141544430216641537e+00 -7.229072944682025081e+01 -1.165024569880568883e+01 -3.175569808891675549e+01 -1.165024569880568883e+01 -6.859229036416293468e+01
-8.431602921953245300e+01 -3.892733065011515237e+01 1.236230267123299198e+00 -3.892733065011515237e+01 -1.257521008086992431e+01 -3.650400366546218578e+01 1.236230267123299198e+00 -3.650400366546218578e+01 -9.766012998205688689e+01
-8.438979280921914494e+01 -4.406679469762692491e+01 1.068624016298554302e+01 -4.406679469762692491e+01 -9.356741197513002817e+01 -8.509153657288784700e+00 1.068624016298554302e+01 -8.509153657288784700e+00 -8.268056477634890200e+01
-8.179522600678146205e+01 -1.379117621871986010e+01 3.542040750634978963e+01 -1.379117621871986010e+01 -2.367343083762882827e+01 5.176233742855021802e+00 3.542040750634978963e+01 5.176233742855021802e+00 -4.494443476232564905e+01
-7.049194746325963479e+01 2.249003238246401182e+01 -1.368746567453192142e+01 2.249003238246401182e+01 -6.375167409850366340e+01 4.978480981073552414e+00 -1.368746567453192142e+01 4.978480981073552414e+00 -1.323814499420636821e+02
-5.364474789549520750e+01 -7.180199255809144532e+00 2.671739051431570999e+01 -7.180199255809144532e+00 -1.023805273615692215e+02 1.893874487100276616e+00 2.671739051431570999e+01 1.893874487100276616e+00 -4.199497539739846985e+01
-2.382672473744517561e+01 1.384099557225940202e+01 3.609003391186111287e+01 1.384099557225940202e+01 -3.734647421755970953e+01 -3.092202720594838539e+01 3.609003391186111287e+01 -3.092202720594838539e+01 -1.255098048305109444e+02
-8.785203450061328567e+01 -9.348695140356465316e+00 4.048489212512468072e+01 -9.348695140356465316e+00 -7.670504168438995407e+01 5.239530151312652428e+00 4.048489212512468072e+01 5.239530151312652428e+00 -1.330834397898490806e+02
-7.459832910142965545e+01 2.324841858264946381e+00 3.499519795812607015e+01 2.324841858264946381e+00 -5.036239359195563736e+01 -5.469281788280843104e-01 3.499519795812607015e+01 -5.469281788280843104e-01 -1.329394493723403059e+01
-6.522743250700082740e+01 2.635714400756630482e+01 -1.410740809434905962e+01 2.635714400756630482e+01 -7.733206228446890407e+01 -4.523729363980337759e+00 -1.410740809434905962e+01 -4.523729363980337759e+00 -6.595378375404932569e+01
-6.759990712718864359e+01 -1.039901254463032387e+01 -9.367654820094887924e+00 -1.039901254463032387e+01 -4.839034434123421136e+01 -9.947830046502618373e+00 -9.367654820094887924e+00 -9.947830046502618373e+00 3.804247098139965644e+00
-4.987806903945670722e-01 3.986326716442992080e+01 -8.763052993033081606e+00 3.986326716442992080e+01 -1.143008469121723891e+02 9.874191525051504215e+00 -8.763052993033081606e+00 9.874191525051504215e+00 -6.940499349155440711e+01
-5.705742571660941564e+01 1.295119135515850495e+01 -1.201550877201525935e+01 1.295119135515850495e+01 -5.658874730327857350e+01 1.349809424537313518e+01 -1.201550877201525935e+01 1.349809424537313518e+01 -1.040643658071699065e+02
-8.750417646595298038e+01 -6.805363953521292864e+00 2.734051689571633048e+01 -6.805363953521292864e+00 -5.172441632589536198e+01 1.021648167165602850e+01 2.734051689571633048e+01 1.021648167165602850e+01 -1.281268978179647178e+01
-9.105799592118967212e+01 1.560654495102956396e+00 2.032409182475869613e+01 1.560654495102956396e+00 -5.776061228501398404e+01 2.556526164617567431e+01 2.032409182475869613e+01 2.556526164617567431e+01 -6.246076190259336158e+01
-7.524240767146429221e+01 3.086528993171873836e+01 3.988875092597137240e+01 3.086528993171873836e+01 -1.045804755598399254e+02 4.868147768457965441e+01 3.988875092597137240e+01 4.868147768457965441e+01 -7.853385718024220807e+01
-9.705971255403558473e+01 -5.968083054550154287e+01 -8.244695037680301652e+00 -5.968083054550154287e+01 -7.705244989701708391e+01 1.341721917155869548e+01 -8.244695037680301652e+00 1.341721917155869548e+01 -2.302333674217491222e+01
-6.548806484776112313e+01 -3.048113029852868650e+01 -1.805674722272406285e+01 -3.048113029852868650e+01 -1.029324045018746148e+02 6.663099237132440678e+00 -1.805674722272406285e+01 6.663099237132440678e+00 -1.064138944625378542e+02
-5.150381439993586952e+01 -2.511827762211260051e+01 1.183099944307567597e+01 -2.511827762211260051e+01 -1.120760093552229506e+02 -3.430122178011409062e+00 1.183099944307567597e+01 -3.430122178011409062e+00 -7.676309330860428304e+01
-5.759397173690706495e+01 4.064867523222733325e+01 5.975582595226696103e-01 4.064867523222733325e+01 -9.754792197886388294e+01 -5.539878653533899744e+00 5.975582595226696103e-01 -5.539878653533899744e+00 -4.494782584054424746e+01
-8.202520741420795503e+01 -3.349108548029353472e+01 -2.153645681441200210e+01 -3.349108548029353472e+01 -3.696374794350815307e+01 1.500929559912008315e+01 -2.153645681441200210e+01 1.500929559912008315e+01 -4.821372432419697418e+01
-3.778636377356381360e+01 -2.934164924556467824e+00 3.418467215966252581e+01 -2.934164924556467824e+00 -2.183383600965420612e+01 -1.644697680662575578e+01 3.418467215966252581e+01 -1.644697680662575578e+01 -4.886800554059983170e+01
-5.228308978708583510e+01 3.339768725175818531e+01 1.579211465601761866e+01 3.339768725175818531e+01 -1.141774419387471653e+02 2.147245763749722514e+01 1.579211465601761866e+01 2.147245763749722514e+01 -1.216051289192971865e+02
-9.413691948298622947e+01 3.013730702267324446e+01 1.470631860208010089e+01 3.013730702267324446e+01 -1.116692359650475908e+02 -1.042608487413443719e+01 1.470631860208010089e+01 -1.042608487413443719e+01 -1.625604583632045319e+02
-7.005236163206161848e+01 -2.632147795339898622e+01 -2.930926912902354786e+01 -2.632147795339898622e+01 -5.606634170680072060e+01 -3.591694931860271822e+01 -2.930926912902354786e+01 -3.591694931860271822e+01 -9.387758759565581101e+01
-1.118695853264676145e+02 4.554687067330676342e+01 2.802328345072651050e+00 4.554687067330676342e+01 -3.056622192856634967e+01 -3.558446383007018454e+01 2.802328345072651050e+00 -3.558446383007018454e+01 -5.343885903130712478e+01
-8.981946876694837556e+01 3.823186830209029097e+01 -7.159771562763367569e+00 3.823186830209029097e+01 -1.152174549191519475e+02 3.881583594444074947e+01 -7.159771562763367569e+00 3.881583594444074947e+01 -7.405905047469097724e+01
-3.849872354968077559e+01 4.542920770535103969e+01 7.932985998752579704e+00 4.542920770535103969e+01 -2.155044082869687827e+01 9.816357692225988529e+00 7.932985998752579704e+00 9.816357692225988529e+00 -7.843291017873309556e+01
-3.044093524013826624e+01 -3.776947130760532190e+01 2.832372448436160539e+00 -3.776947130760532190e+01 -6.306359782211258391e+01 3.173760372161758525e+01 2.832372448436160539e+00 3.173760372161758525e+01 -5.175700200126845374e+01
-8.767670811559432309e+01 -2.847514881441520984e+00 -1.638455914658220181e+01 -2.847514881441520984e+00 -7.066730966829774729e+01 -4.455584517554518342e+00 -1.638455914658220181e+01 -4.455584517554518342e+00 -5.364062542332204941e+01
-7.448408219626524840e+01 1.012870831025683493e+01 -3.027274595850038352e+01 1.012870831025683493e+01 -1.022061362779342772e+02 3.118507808458878827e+01 -3.027274595850038352e+01 3.118507808458878827e+01 -1.089010888603526865e+02
-4.779528205931283935e+01 4.139141125394215237e+01 2.879719928659927319e+01 4.139141125394215237e+01 -7.224275700927000798e+01 2.577987376181303958e+01 2.879719928659927319e+01 2.577987376181303958e+01 4.298959653019390065e-02
-1.422768375898664033e+02 3.545773859037282705e+00 -9.876589273085619070e+00 3.545773859037282705e+00 -8.257300940892997687e+01 -5.437134797008962295e+00 -9.876589273085619070e+00 -5.437134797008962295e+00 -1.291506161145628795e+01
-6.149528427756634130e+01 -2.589941105079196504e+01 -2.763642575923844547e+01 -2.589941105079196504e+01 -6.024776837097788018e+01 -2.132288365522445162e+00 -2.763642575923844547e+01 -2.132288365522445162e+00 -6.092613954662317610e+01
-8.778576607277049959e+01 -1.415202607707597426e+00 -1.509380393250388863e+01 -1.415202607707597426e+00 -1.391962249696565834e+02 -6.123253170334097106e+00 -1.509380393250388863e+01 -6.123253170334097106e+00 -1.529731705945904139e+02
-9.861370460517254344e+01 1.241509057382967285e+01 -6.360387632378863287e+00 1.241509057382967285e+01 -1.178509125782800169e+02 -4.067738522953556668e+01 -6.360387632378863287e+00 -4.067738522953556668e+01 -7.257589438056099596e+01
-6.071038506816876890e+01 -1.259871336028227873e+01 6.087736092201701155e+01 -1.259871336028227873e+01 -9.574743204896229543e+01 -2.531310659654573669e+01 6.087736092201701155e+01 -2.531310659654573669e+01 -4.180366423028665679e+01
-8.931832876044957459e+01 2.914843632320815559e+01 1.303546556545860291e+01 2.914843632320815559e+01 -4.937091783218600227e+01 -7.733667861094889240e+00 1.303546556545860291e+01 -7.733667861094889240e+00 -7.536522594609924397e+01
-8.278381759248203764e+01 -7.601614662144433154e+00 -1.420827502068091341e+01 -7.601614662144433154e+00 -7.988737083895891544e+01 -2.649076294119693742e+01 -1.420827502068091341e+01 -2.649076294119693742e+01 -4.792750340366234951e+01
-1.008714667971369892e+02 -1.494696842206828258e+01 -5.397431654666109857e+00 -1.494696842206828258e+01 -9.454763587940740877e+01 -2.714753945735819585e+01 -5.397431654666109857e+00 -2.714753945735819585e+01 -3.801839519924136823e+01
-3.866460492416208439e+01 2.977513687171045476e+01 -1.627584541069900581e+01 2.977513687171045476e+01 -1.469273274062708197e+02 1.449545755160087701e+01 -1.627584541069900581e+01 1.449545755160087701e+01 -4.233127564559319467e+01
-1.342703147918369098e+02 1.452083008821368759e+00 1.907011338220868168e+01 1.452083008821368759e+00 -7.705113020671748814e+01 -2.249348597515761838e+01 1.907011338220868168e+01 -2.249348597515761838e+01 -1.714677346359085277e+02
-4.789537304162583808e+01 -4.890663988411073149e+01 -3.286986407443254166e+01 -4.890663988411073149e+01 -1.118269380295703996e+02 1.666029008040017700e+01 -3.286986407443254166e+01 1.666029008040017700e+01 -5.243618057297484825e+01
-6.931295446755301271e+01 3.535900969583362752e+00 -7.007502405827933956e+01 3.535900969583362752e+00 -6.335560969958883248e+01 -5.430146943160247375e+00 -7.007502405827933956e+01 -5.430146943160247375e+00 -8.938495358785624489e+01
-4.283315366644561806e+00 2.814007505892641348e+01 -1.334949579808508169e+01 2.814007505892641348e+01 -8.158581813909674452e+01 -2.529201306007782790e+01 -1.334949579808508169e+01 -2.529201306007782790e+01 -6.960400391830032163e+01
-7.352288381916960702e+01 1.155431454357040444e+01 -1.784017387679555000e+01 1.155431454357040444e+01 -1.011978796014506656e+02 -1.990057048902771442e+01 -1.784017387679555000e+01 -1.990057048902771442e+01 -1.182399278854792897e+02
-3.072022499801393280e+01 2.598453065187792177e+01 -1.851453007100683124e+01 2.598453065187792177e+01 -6.074075719104968130e+01 -8.807179595658045201e+00 -1.851453007100683124e+01 -8.807179595658045201e+00 -1.806414216563703690e+01
-1.337829513242503765e+02 -1.270046412147440229e+01 1.233816500121672810e+01 -1.270046412147440229e+01 -1.013775182055055524e+02 2.551713442548767219e+01 1.233816500121672810e+01 2.551713442548767219e+01 -7.600193544891492081e+01
-9.450369852648751134e+01 -2.288933519318500487e+01 3.791366911150973351e+00 -2.288933519318500487e+01 -7.520974356388417448e+01 1.540893820615323229e+01 3.791366911150973351e+00 1.540893820615323229e+01 -5.831472508143621525e+01
-3.906296981127138679e+01 -1.634108457974902784e+00 -1.167159286145350094e+01 -1.634108457974902784e+00 -3.415538854778662703e+00 2.181004408937102568e+00 -1.167159286145350094e+01 2.181004408937102568e+00 -9.248917516257641580e+01
-3.590723347274236943e+01 1.090871255174048926e+01 1.602052616227022597e+01 1.090871255174048926e+01 -3.628872805962420500e+01 -1.327963662339730400e+00 1.602052616227022597e+01 -1.327963662339730400e+00 -8.637148952899489984e+01