2.707819999999999894e+00 8.015879999999999228e+00 1.319659000000000049e+01 1.407408999999999999e+01 4.050589999999999691e+00 7.953829999999999956e+00 7.942730000000000068e+00 6.428950000000000387e+00 1.505549000000000071e+01 1.734010000000000051e+00 9.160199999999999676e+00 1.147859000000000052e+01 1.295589000000000013e+01 5.885349999999999859e+00 7.241400000000000059e-01 9.217349999999999710e+00 1.177718999999999916e+01 8.700459999999999638e+00 1.028129000000000026e+01 8.109799999999999898e+00 4.504889999999999617e+00 1.052349000000000068e+01 1.131358999999999959e+01 1.313078999999999930e+01 2.870099999999999874e+00 1.021379999999999955e+00 4.605249999999999844e+00 4.199910000000000032e+00 2.344479999999999897e+00 6.022829999999999906e+00 6.117569999999999730e+00 7.905730000000000146e+00 8.620670000000000499e+00 1.304429000000000016e+01 1.211928999999999945e+01 7.485949999999999882e+00 1.137920000000000043e+00 8.315559999999999619e+00 3.754459999999999908e+00 8.048519999999999897e+00 1.388968999999999987e+01 7.950169999999999959e+00 1.257418999999999976e+01 1.469449000000000005e+01 1.391629000000000005e+01 1.326268999999999920e+01 7.492130000000000400e+00 1.298978999999999928e+01 1.095608999999999966e+01 2.812669999999999781e+00 8.671250000000000568e+00 1.695800000000000085e-01 2.148010000000000197e+00 8.544340000000000046e+00 7.588470000000000049e+00 1.003218999999999994e+01 5.626060000000000505e-01 1.240249000000000024e+01 3.081100000000000172e+00 1.379308999999999941e+01 2.545080000000000120e-01 1.059909000000000034e+01 1.292909000000000042e+01 1.410879000000000083e+01 8.740030000000000854e+00 2.516840000000000188e+00 9.306889999999999219e+00 4.401720000000000077e-01 1.376129000000000069e+01 1.466469000000000023e+01 3.035099999999999951e-02 1.286039000000000065e+01 1.202008999999999972e+01 9.418820000000000192e+00 1.382808999999999955e+01 9.921789999999999665e+00 1.016108999999999973e+01 7.045230000000000103e+00 3.053679999999999950e+00 1.271458999999999939e+01 3.444729999999999848e+00 5.705869999999999997e+00 1.305029000000000039e+01 7.494690000000000296e+00 1.693880000000000052e+00 1.481639000000000017e+01 2.924819999999999975e+00 7.178259999999999863e+00 4.576920000000000321e+00 3.402930000000000010e+00 7.952960000000000029e+00 1.297479000000000049e+01 1.656169999999999920e+00 4.339140000000000441e+00 1.064908999999999928e+01 1.031978999999999935e+01 1.098469000000000051e+01 6.807260000000000311e+00 1.211209000000000024e+01 9.371380000000000265e+00 3.671159999999999979e+00 3.776510000000000034e+00 2.426909999999999901e+00 1.106629000000000040e+01 8.837400000000000588e+00 3.106939999999999813e+00 4.156469999999999665e+00 7.086590000000000167e+00 1.197009000000000079e+01 7.747620000000000395e+00 2.984510000000000218e+00 5.109690000000000065e-01 7.068780000000000285e+00 1.054748999999999981e+01 2.085830000000000073e+00 1.873280000000000056e+00 9.916890000000000427e+00 7.871059999999999945e+00 9.201309999999999434e+00 1.245199000000000034e+01 6.647639999999999993e+00 4.623770000000000380e+00 1.401858999999999966e+01 8.163650000000000517e+00 1.750410000000000021e-01 2.493959999999999955e+00 7.307660000000000267e+00 9.713689999999999714e+00 2.920830000000000037e+00 6.183159999999999989e+00 8.589800000000000324e+00 1.420468999999999937e+01 9.269830000000000680e+00 1.185468999999999973e+01 1.819799999999999890e-02 1.102529000000000003e+01 7.971440000000000303e+00 1.001819000000000059e+01 9.413999999999999702e+00 3.417149999999999910e+00 5.812400000000000205e-02 6.332279999999999909e+00 1.320528999999999975e+01 1.506448999999999927e+01 2.549529999999999852e+00 5.465239999999999654e+00 1.092958999999999925e+01 3.422200000000000131e+00 3.929600000000000204e+00 1.254208999999999996e+01 1.259529000000000032e+01 1.064799000000000007e+01 2.136089999999999822e+00 1.157978999999999914e+01 3.925370000000000026e+00 8.671600000000000419e-01 1.061969000000000030e+01 3.681109999999999882e+00 1.093229000000000006e+01 9.247550000000000381e+00 7.569420000000000037e+00 1.359069000000000038e+01 1.293369999999999909e+00 1.258950000000000069e-01 1.120409000000000077e+01 1.357449000000000083e+01 1.130428999999999995e+01 1.146618999999999922e+01 1.496668999999999983e+01 1.378119000000000050e+01 9.627689999999999415e+00 7.001600000000000046e-01 1.245200000000000085e+00 6.121369999999999756e+00 3.805769999999999875e+00 8.257870000000000488e+00 7.702469999999999928e+00 1.422479000000000049e+01 1.487598999999999982e+01 3.147749999999999826e+00 1.387748999999999988e+01 5.589760000000000062e+00 9.938990000000000435e+00 1.016239000000000026e+01 1.391299999999999981e+00 2.934320000000000039e+00 5.030240000000000045e+00 3.164579999999999949e+00 8.123969999999999914e+00 1.083028999999999975e+01 4.487439999999999762e-01 5.905200000000000449e-01 6.521200000000000330e+00 5.087880000000000180e+00 1.248650000000000038e+00 1.154588999999999999e+01 7.933209999999999873e+00 6.674700000000000077e-01 1.003289000000000009e+01 6.296599999999999420e-02 7.038599999999999746e+00 1.140738999999999947e+01 2.091819999999999791e+00 6.388069999999999915e+00 1.061988999999999983e+01 1.294618999999999964e+01 3.855840000000000156e+00 3.089939999999999909e+00 1.339099000000000039e+01 9.121510000000000673e+00 1.980699999999999961e-01 1.168918999999999997e+01 8.476480000000000459e+00 1.631790000000000074e+00 6.274879999999999569e+00 4.786310000000000286e+00 4.124979999999999869e+00 1.050829000000000057e+01 3.085310000000000219e+00 8.786800000000000166e-01 4.572470000000000034e+00 6.389470000000000205e+00 4.657350000000000101e+00 1.368749000000000038e+01 1.355768999999999913e+01 1.274299000000000071e+01 4.412069999999999936e+00 1.194078999999999979e+01 3.081440000000000179e+00 5.786819999999999631e+00 1.416979000000000077e+01 1.113469999999999960e+00 8.958389999999999631e+00 1.462939000000000078e+01 6.049419999999999575e+00 1.113929000000000080e+01 4.448809999999999931e+00 4.169229999999999769e+00 6.949889999999999901e+00 9.723589999999999733e+00 1.279579000000000022e+01 9.508340000000000458e+00 9.941589999999999705e+00 1.478959000000000046e+01 6.844020000000000437e+00 1.472818999999999967e+01 4.608590000000000408e+00 7.178379999999999761e+00 3.727980000000000183e-01 5.292729999999999713e+00 8.561989999999999768e+00 2.279209999999999958e+00 1.172068999999999939e+01 8.953609999999999403e+00 7.995339999999999669e+00 1.063738999999999990e+01 1.048919000000000068e+01 3.771760000000000002e+00 2.497809999999999864e+00 8.376540000000000319e+00 5.709410000000000096e+00 6.006719999999999615e+00 1.098169000000000040e+01 8.747350000000000847e+00 8.886300000000000310e+00 5.910989999999999966e+00 4.315830000000000055e+00 1.130288999999999966e+01 1.339528999999999925e+01 6.188439999999999941e+00 5.766020000000000145e+00 1.939510000000000067e+00 1.008728999999999942e+01 4.785829999999999806e+00 1.297208999999999968e+01 5.323310000000000208e+00 1.281639000000000017e+01 1.563870000000000093e+00 1.204838999999999949e+01 1.129848999999999926e+01 9.492300000000000182e-01 1.021339000000000041e+01 6.091520000000000046e+00 2.780369999999999786e-01 1.433428999999999931e+01 8.944069999999999965e+00 1.086569000000000074e+01 1.112848999999999933e+01 7.404069999999999929e+00 1.854330000000000034e+00 5.799100000000000366e-01 1.280598999999999954e+01 1.281309000000000076e+01 9.764689999999999870e+00 1.244688999999999979e+01 1.308108999999999966e+01 2.303100000000000147e+00 7.794389999999999930e+00 9.383119999999999905e+00 7.807890000000000441e+00 3.692769999999999886e+00 1.270678999999999981e+01 1.146779000000000082e+01 5.702890000000000015e+00 2.933009999999999895e+00 1.223958999999999975e+01 3.930330000000000101e+00 6.272999999999999687e-01 9.071180000000000021e+00 1.078248999999999924e+01 1.459909000000000034e+01 1.207638999999999996e+01 1.353998999999999953e+01 1.423030000000000017e+00 4.939720000000000333e+00 9.292070000000000718e+00 2.689160000000000217e+00 1.280549000000000071e+01 1.410139000000000031e+01 1.207130000000000036e+00 1.224638999999999989e+01 6.753269999999999662e+00 1.247068999999999939e+01 1.081460000000000088e+00 2.978159999999999918e+00 1.335609000000000002e+01 1.048709000000000024e+01 7.070960000000000356e+00 1.054068999999999967e+01 7.903999999999999915e+00 1.189878999999999998e+01 1.031438999999999950e+01 3.334099999999999842e+00 1.234969000000000072e+01 6.784340000000000259e+00 1.224648999999999965e+01 9.691890000000000782e+00 1.447958999999999996e+01 1.289089000000000063e+01 1.427039000000000080e+01 6.829509999999999970e+00 1.024338999999999977e+01 3.114149999999999974e+00 1.032239000000000040e+01 9.686989999999999768e+00 3.719669999999999810e+00 1.343538999999999994e+01 1.265709000000000017e+01 4.315380000000000216e+00 1.152638999999999925e+01 1.135969000000000051e+01 7.795900000000000052e-01 1.475478999999999985e+01 1.237119000000000035e+01 1.001348999999999911e+01 1.169889000000000046e+01 3.763619999999999965e+00 7.821950000000000180e+00 1.005688999999999922e+01 1.137269000000000041e+01 1.483878999999999948e+01 1.696819999999999995e+00 5.276229999999999976e+00 1.142469000000000001e+01 4.464120000000000310e+00 1.170478999999999914e+01 5.035859999999999781e-01 7.823129999999999917e+00 8.228199999999999403e-02 7.524110000000000298e+00 5.712760000000000282e+00 4.060030000000000250e+00 4.339710000000000178e+00 2.940529999999999866e+00 1.232619000000000042e+01 8.825620000000000687e+00 9.403600000000000847e+00 6.800150000000000361e+00 1.094178999999999924e+01 7.935039999999999871e+00 8.645759999999999224e+00 5.607020000000000337e+00 1.227509000000000050e+01 8.636829999999999785e+00 1.110938999999999943e+01 1.430518999999999963e+01 7.240249999999999631e+00 9.720489999999999853e+00 1.153719000000000072e+01 1.200289000000000073e+01 6.066600000000000215e+00 1.249178999999999995e+01 4.906769999999999854e+00 1.219519000000000020e+01 6.865739999999999732e+00 7.503899999999999459e-02 1.421088999999999913e+01 1.134459000000000017e+01 1.265828999999999915e+01 1.163850000000000051e+00 6.889059999999999739e+00 3.666799999999999837e+00 3.486240000000000006e+00 6.340659999999999741e+00 2.774260000000000059e-01 2.801830000000000154e-01 9.030459999999999710e+00 2.944630000000000081e+00 8.962799999999999656e-01 2.560700000000000198e+00 9.614190000000000680e+00 1.445559000000000083e+01 6.834209999999999674e+00 1.330169000000000068e+01 6.215220000000000411e+00 4.542259999999999742e+00 2.482429999999999914e+00 4.909609999999999808e+00 1.507985200000000070e+01 1.368638999999999939e+01 1.294999999999999929e+00 6.018060000000000187e+00 1.053569000000000067e+01 1.080908999999999942e+01 1.489779000000000053e+01 1.076388999999999996e+01 1.363978999999999964e+01 5.156200000000000117e+00 8.646409999999999485e+00 4.676309999999999967e+00 1.332118999999999964e+01 6.627060000000000173e+00 1.102618999999999971e+01 7.894140000000000157e+00 1.983330000000000037e+00 7.273600000000000065e-01 1.478458999999999968e+01 9.983689999999999287e+00 1.394838999999999984e+01 1.467459000000000024e+01 1.394178999999999924e+01 3.726069999999999993e+00 6.129769999999999719e+00 1.066389000000000031e+01 1.248348999999999975e+01 2.021599999999999842e+00 5.521099999999999675e+00 5.255889999999999951e+00 8.289880000000000138e+00 7.562999999999999723e+00 1.227449999999999930e+00 1.034459000000000017e+01 1.200159000000000020e+01 3.496410000000000018e+00 1.452788999999999930e+01 8.486840000000000828e+00 1.126238999999999990e+01 1.356309000000000076e+01 2.879000000000000004e+00 8.785339999999999705e+00 1.499288999999999916e+01 7.464039999999999786e+00 1.956520000000000037e+00 8.325900000000000523e-01 5.682929999999999815e+00 1.139189000000000007e+01 3.083190000000000097e+00 7.403260000000000396e+00 1.243338999999999928e+01 4.850389999999999979e+00 1.454469999999999930e+00 3.764549999999999841e+00 1.329518999999999984e+01 4.489080000000000403e+00 9.507820000000000604e+00 3.026450000000000085e+00 1.148278999999999961e+01 1.466299000000000063e+01 4.256660000000000110e+00 6.669489999999999696e+00 1.199829000000000079e+01 1.439228999999999914e+01 1.270359000000000016e+01 6.744510000000000005e+00 1.394219000000000008e+01 7.599230000000000373e+00 3.057580000000000187e+00 8.993389999999999773e+00 6.814219999999999722e+00 4.346729999999999983e+00 9.584889999999999688e+00 2.118689999999999962e+00 3.276809999999999778e+00 4.464699999999999669e+00 1.385718999999999923e+01 9.859890000000000043e+00 1.146668999999999983e+01 7.528039999999999843e+00 1.357379000000000069e+01 1.394308999999999976e+01 9.551619999999999777e+00 5.965810000000000279e+00 4.593029999999999724e+00 1.464660000000000128e-01 7.858679999999999666e+00 1.392219000000000051e+01 2.613010000000000055e+00 1.354438999999999993e+01 9.756890000000000285e+00 1.705519999999999925e+00 8.175710000000000477e+00 2.961359999999999992e+00 4.839129999999999820e-01 5.307280000000000442e+00 7.473819999999999908e+00 1.426679000000000030e+01 1.221789000000000058e+01 1.211059000000000019e+01 8.691259999999999764e+00 9.885490000000000776e+00 9.407679999999999154e+00 4.314000000000000057e+00 1.192268999999999934e+01 2.024129999999999985e+00 1.303129000000000026e+01 1.290888999999999953e+01 9.294990000000000308e+00 8.554410000000000736e+00 6.624959999999999738e+00 8.889709999999999113e+00 1.293038999999999916e+01 1.338189000000000028e+01 4.541370000000000129e-01 3.963989999999999903e+00 1.019669000000000025e+01 4.042720000000000091e+00 9.949799999999999756e-01 5.128739999999999633e+00 2.183780000000000054e+00 7.047039999999999971e+00 5.143559999999999910e+00 7.429700000000000415e+00 1.560019999999999962e+00 6.405070000000000263e+00 9.422689999999999344e+00 1.805589999999999973e-01 1.159790000000000099e+00 1.060119000000000078e+01 8.411910000000000664e+00 2.369279999999999831e+00 6.977689999999999948e+00 5.826609999999999623e+00 8.015579999999999927e+00 3.469819999999999904e+00 3.637849999999999806e+00 1.042389000000000010e+01 6.950700000000000323e+00 1.082759000000000071e+01 5.840200000000000280e+00 3.068519999999999914e+00 9.282099999999999795e+00 1.238438999999999979e+01 1.189758999999999922e+01 1.589860000000000051e+00 6.964419999999999611e+00 1.437548999999999921e+01 1.470748999999999995e+01 9.029899999999999594e-01 8.431430000000000646e+00 1.071538999999999930e+01 7.158260000000000289e+00 1.066289000000000087e+01 3.856980000000000075e+00 9.149300000000000210e+00 1.258338999999999963e+01 1.174960000000000004e+00 1.065720000000000001e+00 5.014540000000000219e+00 5.107029999999999959e+00 5.589229999999999698e+00 7.049210000000000420e+00 9.604089999999999350e+00 1.166498999999999953e+01 7.811790000000000234e+00 4.311499999999999666e+00 4.831889999999999574e+00 1.046158999999999928e+01 4.288020000000000387e+00 1.426188999999999929e+01 5.842419999999999725e+00 3.583850000000000091e-01 9.872590000000000643e+00 4.966689999999999827e+00 4.120709999999999873e+00 9.523569999999999425e+00 3.504109999999999725e-01 3.063199999999999951e-02 1.120359000000000016e+01 9.564790000000000347e+00 6.923709999999999809e+00 6.249450000000000394e+00 2.064290000000000180e+00 1.133478999999999992e+01 1.029729000000000028e+01 1.208379000000000048e+01 1.425428999999999924e+01 5.479840000000000266e+00 1.015828999999999915e+01 9.729589999999999961e+00 1.046569000000000038e+01 1.357598999999999911e+01 5.082559999999999967e+00 7.615639999999999965e+00 5.610820000000000363e+00 1.392798999999999943e+01 1.030269000000000013e+01 2.642059999999999853e+00 3.518860000000000099e+00 1.039109000000000016e+01 1.211030000000000051e+00 6.371610000000000440e+00 2.461710000000000065e+00 8.799049999999999372e+00 1.433358999999999916e+01 1.274449000000000076e+01 1.233498999999999945e+01 1.109739000000000075e+01 1.234798999999999936e+01 1.244749000000000017e+01 6.268480000000000274e+00 3.271119999999999806e+00 7.471919999999999895e+00 8.738009999999999167e+00 9.206860000000000710e+00 5.743700000000000472e-01 3.344170000000000087e+00 1.127178999999999931e+01 9.038270000000000692e+00 1.496719000000000044e+01 2.532739999999999991e+00 6.635710000000000441e+00 1.321528999999999954e+01 3.434649999999999981e+00 3.529819999999999958e+00 5.954869999999999663e+00 2.105210000000000026e+00 1.232229999999999936e+00 1.112018999999999913e+01 8.136329999999999174e+00 9.881890000000000285e+00 1.838680000000000092e+00 1.896619999999999973e+00 9.017989999999999284e+00 4.625440000000000218e+00 8.728960000000000719e+00 1.485440000000000094e+00 1.321438999999999986e+01 1.400258999999999965e+01 2.759889999999999954e+00 8.553760000000000474e+00 1.433098999999999990e+01 1.170329000000000086e+01 7.449239999999999640e+00 1.371448999999999963e+01 1.367009000000000007e+01 2.561399999999999899e+00 8.641479999999999606e+00 7.568030000000000257e+00 1.488218999999999959e+01 1.173869000000000007e+01 8.930300000000000793e+00 1.069298999999999999e+01 6.587270000000000181e+00 3.794740000000000002e+00 1.296319000000000088e+01 3.155320000000000125e+00 1.820980000000000043e+00 9.131660000000000110e+00 1.193708999999999953e+01 1.497549000000000063e+01 3.069900000000000059e-02 1.369378999999999991e+01 4.679359999999999964e+00 1.101969000000000065e+01 5.159119999999999706e+00 7.495800000000000241e-01 9.680490000000000705e+00 9.350809999999999178e+00 1.085628999999999955e+01 9.758589999999999876e+00 2.585729999999999862e+00 4.249500000000000277e+00 1.154099000000000075e+01 6.453669999999999796e+00 1.530389999999999917e+00 1.471479000000000070e+01 3.292930000000000135e+00 1.154189000000000043e+01 2.797180000000000000e+00 8.516120000000000800e+00 1.293969000000000058e+01 8.807489999999999597e+00 2.319039999999999990e-01 1.245269000000000048e+01 9.544930000000000803e+00 1.236708999999999925e+01 1.626009999999999955e+00 1.076359000000000066e+01 1.316249000000000002e+01 3.976630000000000109e+00 1.320419000000000054e+01 3.914509999999999934e-01 7.403200000000000058e-02 2.774119999999999919e+00 1.823679999999999968e+00 4.586949999999999861e+00 7.390590000000000437e+00 2.033090000000000064e+00 1.350149000000000044e+01 2.870509999999999895e+00 3.909130000000000105e-01 1.005358999999999980e+01 1.423939000000000021e+01 9.274580000000000268e+00 7.243170000000000108e+00 4.513060000000000294e+00 9.708389999999999631e+00 3.528179999999999872e+00 1.381908999999999921e+01 1.070269000000000048e+01 1.526589999999999892e+00 9.105430000000000135e+00 7.453990000000000116e+00 8.230280000000000484e+00 8.459429999999999339e+00 1.215658999999999956e+01 3.045640000000000125e+00 4.292599999999999888e-02 6.449309999999999654e+00 8.602109999999999701e+00 3.017840000000000078e+00 1.013688999999999929e+01 6.590700000000000003e+00 1.317638999999999960e+01 7.585320000000000285e+00 6.018279999999999852e+00 1.216169999999999973e+00 1.333428999999999931e+01 7.566119999999999735e+00 2.644950000000000134e+00 1.160568999999999917e+01 1.046138999999999974e+01 1.306179000000000023e+01 5.314079999999999693e+00 1.270858999999999916e+01 1.425728999999999935e+01 1.081958999999999982e+01 3.918839999999999879e+00 9.557320000000000704e+00 2.936420000000000030e+00 8.661680000000000490e+00 1.200248999999999988e+01 4.110699999999999577e+00 4.278690000000000104e+00 8.121420000000000528e+00 2.912630000000000052e+00 1.230009000000000086e+01 8.318789999999999907e+00 6.007900000000000462e-01 1.264150000000000107e+00 7.611060000000000159e+00 1.371259000000000050e+01 1.021208999999999989e+01 1.067909000000000042e+01 8.422219999999999374e+00 1.076998999999999995e+01 1.478579000000000043e+01 9.079100000000000392e+00 8.661189999999999500e+00 1.283749000000000073e+01 7.486410000000000231e+00 1.078279999999999905e+00 1.771409999999999929e+00 1.097639000000000031e+01 1.035919999999999952e+00 1.854510000000000103e+00 1.315948999999999991e+01 8.834839999999999804e+00 1.329818999999999996e+01 2.653970000000000162e+00 6.848600000000000243e-01 3.309359999999999857e+00 4.146090000000000053e+00 1.360030000000000072e+00 5.031749999999999723e+00