-7.790881420006707776e+04
-7.791207562656834489e+04
-7.791478622880505282e+04
-7.791461200197361177e+04
-7.791018835646306979e+04
-7.791348881351482123e+04
-7.791328227344978950e+04
-7.791057168179127621e+04
-7.791351245576991641e+04
-7.791442764371218800e+04
-7.790908062500030792e+04
-7.790895284981225268e+04
-7.791003833796585968e+04
-7.791298654289639671e+04
-7.791399861647383659e+04
-7.791454271158271877e+04
-7.790872386078111595e+04
-7.791204476623794471e+04
-7.791504462508326105e+04
-7.791239405688528495e+04
-7.791283843813485873e+04
-7.791279667584528215e+04
-7.791019021036484628e+04
-7.791306172395634349e+04
-7.791421475706483761e+04
-7.790821346698397247e+04
-7.791354230570080108e+04
-7.791037135907389165e+04
-7.791394949919986539e+04
-7.791300180465410813e+04
-7.791351968178979587e+04
-7.791474693446011224e+04
-7.791421111582359299e+04
-7.790972020895167952e+04
-7.790937995512587077e+04
-7.791185421081454842e+04
-7.791179146917340404e+04
-7.790931191398580268e+04
-7.791232647109315440e+04
-7.791234558674697473e+04
-7.791253374989787699e+04
-7.791400122602091869e+04
-7.791323235033906531e+04
-7.791299026187216805e+04
-7.791488824037481390e+04
-7.791307812699880742e+04
-7.791245106331614079e+04
-7.791271465443972556e+04
-7.790880684065890091e+04
-7.791187355950656638e+04
-7.791254088331125968e+04
-7.791256635489064502e+04
-7.791123037196199584e+04
-7.790927229325321969e+04
-7.791324585031428433e+04
-7.791455374550633132e+04
-7.791308131023586611e+04
-7.791194064950544271e+04
-7.790948608065654116e+04
-7.791344811822896008e+04
-7.791325128592288820e+04
-7.791221147095272318e+04
-7.791137495251736254e+04
-7.791197872592425847e+04
-7.791520306815957883e+04
-7.791346621586126275e+04
-7.790879595720415819e+04
-7.791280333064970910e+04
-7.791526188410934992e+04
-7.791398078035067010e+04
-7.791353119030210655e+04
-7.791127807644889981e+04
-7.791412236120857415e+04
-7.791312198528478621e+04
-7.791284803532365186e+04
-7.791379792225980782e+04
-7.790883553042379208e+04
-7.790933657987632614e+04
-7.791305299945834849e+04
-7.790948120682213630e+04
-7.791269235656566161e+04
-7.791217230105816270e+04
-7.791530281672072306e+04
-7.791209098958328832e+04
-7.791344069335072709e+04
-7.791406264274354908e+04
-7.791266631196622620e+04
-7.791327026943884266e+04
-7.791326408129511401e+04
-7.791157480575490627e+04
-7.791411539988909499e+04
-7.791318680424903869e+04
-7.791425787722096720e+04
-7.791227517395647010e+04
-7.791098660274637223e+04
-7.791422638365713647e+04
-7.791186052591464249e+04
-7.791310916215139150e+04
-7.791231160671733960e+04
-7.791184288867341820e+04
-7.791216480909504753e+04
-7.790807691112364409e+04
-7.791269722500721400e+04
-7.791467552989137766e+04
-7.791054490652993263e+04
-7.791374080446283915e+04
-7.791293282191266189e+04
-7.790929704128690355e+04
-7.791080673564042081e+04
-7.791344060580804944e+04
-7.791232960427948274e+04
-7.791411486830988724e+04
-7.791151963305608660e+04
-7.791498152229035622e+04
-7.791428527724662854e+04
-7.791485279063915368e+04
-7.791264015532089979e+04
-7.791399234372642240e+04
-7.791459667185731814e+04
-7.791239864144580497e+04
-7.791006201363903529e+04
-7.790968891226474079e+04
-7.790980909298006736e+04
-7.791361349104419060e+04
-7.791222885480051627e+04
-7.791287955921751563e+04
-7.791191759840352461e+04
-7.790916739202040480e+04
-7.791461292448190216e+04
-7.790891432873801386e+04
-7.790724918634096684e+04
-7.791321136851861957e+04
-7.791300181497979793e+04
-7.791321545267727925e+04
-7.791143011456901149e+04
-7.791265913163758523e+04
-7.791059643630214850e+04
-7.791421436313030426e+04
-7.791500453849087353e+04
-7.791320840649031743e+04
-7.791196947464007826e+04
-7.790935100344814418e+04
-7.791226373184591648e+04
-7.791418237551942002e+04
-7.791247558855525858e+04
-7.791386367446232180e+04
-7.791339680603067973e+04
-7.790932061997595883e+04
-7.791010621357668424e+04
-7.790951411831167934e+04
-7.791316772917575145e+04
-7.791182312508138421e+04
-7.791229353901839931e+04
-7.791227024157009146e+04
-7.791418526444591407e+04
-7.791317916786180285e+04
-7.791188898684228479e+04
-7.790916717098066874e+04
-7.791173114265612094e+04
-7.791264822281285888e+04
-7.790959677489020396e+04
-7.790922065023418691e+04
-7.790982125543215079e+04
-7.791042087922253995e+04
-7.791290893884994148e+04
-7.791270140967363841e+04
-7.791351148278759501e+04
-7.790920704902836587e+04
-7.790858359240530990e+04
-7.791341765713966743e+04
-7.790999442801429541e+04
-7.791129467140448105e+04
-7.791418149066943442e+04
-7.791037145080331538e+04
-7.791126648618071340e+04
-7.790964337368118868e+04
-7.791438313115412893e+04
-7.791086578321238630e+04
-7.791364286609912233e+04
-7.791369010849783081e+04
