-1.222173988743577161e-01 2.629513700262656739e-01 6.352543376443121614e-01 1.702306974976779963e-01 -8.917182996377646109e-01 2.266993266761306303e-01 -7.133726856716475773e-01 -2.152994656931689565e+00 1.162534674884534297e-01 -4.352826589803515112e-01 1.076305009933483381e-01 6.904584981835220070e-01 8.454559224120131167e-02 -1.012111243558062368e+00 -1.490766873792670477e-01 4.693641768623109112e-01 -4.282224091158519652e-01 7.498823535798390116e-01 1.146166516586144768e+00 4.652061884861751762e-01 -1.369072951565221574e+00 -3.163943247544112047e-01 1.538476267997205549e-01 -3.857374969669115083e-01 -2.777732667556417900e-01 -8.094573898545363022e-01 7.026198171416730975e-01 9.448804898774892935e-01 -2.332263297009006808e-01 -5.805721110899871862e-01 -1.245615252423335040e+00 -1.101236999349380019e+00 -6.323618463487689079e-01 -3.055774871724961539e+00 4.007198305468138155e-01 -6.268108341646995152e-01 -9.462534590791072953e-01 -1.474949445836952533e+00 -1.200171000291131884e+00 6.576455627062035569e-01 1.290504660447468588e+00 -4.404408065689018326e-01 -7.190985328851364766e-01 -3.640486973467467746e-01 1.090180226400620400e+00 1.084983512261462835e+00 -6.498484346147682666e-01 1.489147078667166224e-01 5.445596945742918688e-04 1.756609706673129878e+00 6.741613023382500014e-01 -1.643514068348397528e+00 7.543159642376479068e-01 -6.402407355274916667e-02 1.805155737915504988e+00 5.890336122932167129e-01 -8.824849532017155218e-02 -6.968662020117468714e-01 -1.516095327348809585e+00 1.720068671303778052e+00 -2.913574343208628625e-01 -5.080793372445620015e-01 1.100670842386465509e+00 -6.502963208224870062e-01 -2.458869569342468642e-01 -1.076746211272430198e+00 1.279049366475767391e+00 -2.993774256527405697e+00 -2.240855429863089776e-01 -7.619243733414449160e-01 2.115286340630624817e+00 -3.487578313619865145e-01 1.292164564785604486e-01 -3.384394793021869297e-02 -1.487198182309813488e-01 9.016170476269573797e-01 -2.575782781956643605e-02 3.142320268170317177e-01 -1.662984519977633580e-01 1.840501724436707010e+00 -4.240520794435220231e-01 7.212891129596279427e-01 2.246656867515768319e+00 1.248006892781658772e+00 1.277380720386160629e-01 3.590797829665093310e-01 1.265864748374837534e+00 1.876343419688381031e+00 -6.973115171160918502e-01 1.231233014370881396e+00 -1.136883290744644004e+00 4.152280526645844572e-01 1.634892644515316684e-01 -1.019771588950010521e+00 2.311211102584198596e-01 -7.685891875070516299e-01 -6.485366576734472588e-01 -3.300813364545848727e-01 -1.712392385070911960e+00 1.089981737220161673e+00 -5.201013023998521945e-01 -1.261203337958108628e-01 -2.132554385109850070e+00 9.844893657924790320e-01 -1.867427861629335606e+00 5.869556465464982331e-01 1.125652196987139364e+00 3.071791817302487626e+00 5.916705359134026843e-01 -1.992846798424769694e-01 6.669061628380151818e-01 -7.758834077785684569e-01 2.394901545843268753e+00 -4.112053043259115137e-01 -1.969965521059828584e+00 1.155505792481195115e+00 2.892671272779502312e-01 -8.906919151709370430e-01 4.684210961447951016e-01 -5.478697330577430025e-01 3.623389136031588964e-01 9.722606839259340106e-01 1.034244329841222498e+00 9.179569237882346799e-01 -5.527435166131491329e-01 1.540233874263546410e+00 -1.179389800161924517e+00 -1.786474615022030310e+00 2.333430577940719119e-01 -8.720365033112008613e-01 -1.349222490857335532e-01 -9.926474767975980162e-01 6.975454875231090757e-02 -1.574569417158838913e+00 -3.966189206655768573e-01 -8.913578309447555137e-01 -2.116949330292809517e+00 5.731524209738281250e-01 -1.288018917705662902e+00 5.313005144755212905e-01 -9.572372126920504487e-02 2.613793974235142925e-01 -1.819200647205313714e+00 6.755712954284508465e-01 -1.488197313080878326e+00 1.796874213948442600e+00 -7.047137237293090717e-01 1.147406302632999198e-01 -2.769757104890839816e-01 2.137182371182719365e+00 -7.191633246901565912e-02 6.652015213011749362e-01 1.225724682502817409e+00 6.071969149672044874e-02 2.005959425631232751e+00 5.656293725020415941e-01 -1.006700613618203288e+00 1.631357377376319251e+00 -1.077084054255749601e+00 9.926911855549529484e-01 -9.974549258859598533e-01 8.338062530252514648e-01 -8.688282805213529691e-01 9.557783686377472332e-01 -1.027744580512214734e+00 -8.065654127796678674e-01 -1.438573475304199822e-01 7.211122210475093275e-02 -1.637600530588620318e+00 8.372217067470291152e-01 1.446933675034500766e+00 7.598962870001787495e-01 3.374064099665875505e-01 1.737643191305161761e+00 2.209036482950088587e+00 -1.207174171660732931e+00 1.032066605283600058e+00 -9.906157909116083404e-01 -2.173647301892206229e+00 -1.295188182353212314e+00 -1.286117843871063204e+00 -3.258825703789404393e+00 5.834466046619138924e-01 5.364308941476342296e-01 1.443291449995152353e+00 -7.938333088725295639e-01 -1.060780687762380436e-01 6.933391624035457612e-01 9.520795793241750016e-02 -5.807320337198386140e-01 -3.995180968298920887e-01 1.258378723791634179e+00 1.376033956839491923e+00 2.988074634568329557e-01 1.786816057550073333e+00 -7.994717385713087099e-01 -3.531029960637360188e-01 -3.272911750733194236e-02 1.608461187611810672e+00 7.829693686768061101e-01 -1.234217036946532731e-01 7.977197887323902448e-01 1.345926336332103346e-01 6.475766076736642063e-01 -1.309179098472171177e+00 -9.030959462875763899e-01 1.392521928555101152e+00 7.370098674284902840e-01 -1.569139246833338996e-01 -8.495372919076091822e-01 2.802898627379332153e-01 -4.409679856046690993e+00 -2.706155720732746683e+00 -7.234272425252935568e-01 -1.116047069003236691e+00 2.334021931716697029e+00 8.079275833471157853e-01 4.075908472030005392e-01 7.338278698930553734e-01 -2.025644307281844636e+00 6.284157168906356894e-01 1.265281107908981240e-01 2.187659301058830219e-01 1.114878245409499868e+00 -1.254893850278763212e-01 2.219268960157202653e+00 6.691265677116429167e-01 -4.331116192915011043e-01 1.295512141378313276e-01 3.919636808969450548e-01 1.164642979651063642e-01 -2.355583204609520420e-01 -6.690206382526416862e-01 -5.388919542970511678e-01 -8.870337492906713583e-01 1.705465318361175875e+00 -6.871206917836336636e-01 1.023409700223960606e+00 2.043718649779098784e-01 -2.472702619714275407e+00 -7.535801144520615225e-02 -4.064456777603027704e-01 5.878138808526781611e-01 1.181797381361166105e-01 8.819990146640642736e-01 -2.925083116130505090e+00 -1.203237812395420159e+00 -1.656010659186494482e+00 -1.743435372985695064e+00 1.051345766821824013e+00 3.433384596706564595e-01 2.839577988110195475e-02 -1.199274199434344990e+00 -1.825510134884658964e+00 7.040406088660439154e-01 -1.647457112482482389e+00 -6.312135915820226151e-01 8.211363698197595706e-01 -5.521645041333657078e-01 -9.680173349177874087e-01 8.659830975278877130e-01 1.703868148945361316e+00 -8.382681458201722835e-01 -3.026836589031984270e-01 5.075990551343330104e-01 1.741661311657761946e+00 -6.164194627690835482e-01 1.034509153488725498e-02 3.878946526975434184e-01 5.955066221471365662e-01 -6.427799572194725641e-01 1.283032005601808800e-01 -1.157203749149263716e+00 1.384782907399914054e+00 2.963546308382121741e-01 -2.436444405716042816e-01 5.378748258023694460e-04 -4.431450930974818736e-02 -2.371596036421648179e-01 -1.839367353628179212e-03 8.022089352230734605e-01 -5.972194912147730239e-01 -4.262426595180134892e-01 3.342110426936086287e-01 2.449994120496054584e-01 1.288739855091681208e-01 -9.665183816508525760e-01 -2.200581152394956330e+00 -2.695663047864201856e-01 -1.477064435472253745e+00 1.399265932704621296e+00 -8.223026223101226329e-01 -1.483683483997806807e+00 2.183458118146014426e-01 9.290985431483301804e-01 7.195695590232196182e-01 9.656802019509884705e-01 3.131696469029707774e-01 -3.828439772300186728e-01 -1.786484385214851089e+00 -9.494637387516543514e-01 1.710374583143140947e+00 1.285147509457784887e+00 7.867015823342379255e-01 8.058943547991017642e-01 8.722884714418347452e-01 3.214393437945135545e-01 -4.233321704988534523e-02 4.729251550350465072e-01 2.349967914841105399e-01 -5.965355777173377838e-01 1.805842736736988474e+00 -1.462279048410785876e-01 -3.618576030515804898e-01 -1.409725695449980942e-01 1.446374202940358400e-01 3.538311325392007878e-01 1.182918382432149862e-01 1.180001722764892680e+00 -9.767616574921368366e-01 3.221263426159972632e-01 -3.755435863104046867e-01 6.601241063585625568e-01 -1.022898050652571111e+00 1.165038929570631487e-01 -1.848273655715078900e-01 5.774225094570623051e-01 -1.404016817518759064e+00 1.185033886288126004e+00 7.769108206867454403e-01 1.737319746500735729e+00 -3.911728094991591687e-01 -1.231085433037224508e+00 -1.170433104448897893e-01 5.420595536535928183e-01 7.302740908097663519e-01 -9.226214195290122211e-01 9.615268415609256047e-01 4.449335526043084466e-01 1.018680412678163005e+00 2.257490982912355726e+00 -1.615583658177956461e-01 1.635492225822090973e+00 -1.079484950586219183e+00 1.578984515872356109e+00 -1.267084994036050682e+00 -1.095445846110196131e+00 -1.751952924242473841e+00 1.135375595726237918e+00 -1.153360978046757745e+00 -1.452004919329015833e-02 -2.787698264233330336e-01 -9.504998934113023656e-01 1.378107294600137589e+00 1.538651103026624986e-02 1.389784217682661638e-02 1.498747578664996194e-01 1.624267816933358421e+00 1.029684735118096661e+00 4.687306569910025256e-01 9.731687976375658078e-01 -3.453608895845003413e-02 8.339769742892729765e-01 -1.549224508541107381e+00 -4.987158929777977812e-01 6.936399814982822098e-01 -9.356913664194700664e-02 3.747820254910802507e-01 7.996069786087715014e-01 5.725651809632483769e-01 1.119454295194217908e+00 9.395310521979272078e-01 2.175050610113635208e-01 2.753101497235257988e-01 9.882190083465369757e-02 -1.250578510376149977e+00 -6.210428208558800289e-01 1.871634186748899031e+00 1.956553103199978605e-01 7.470705949302334226e-01 1.072252951016348758e-02 -8.347467626393935136e-01 -1.459903348893379471e+00 -1.276892210745135536e-01 4.026604993733703952e-02 -1.528368232193384246e+00 -4.661914352990215171e-01 4.429646016406399434e-01 -1.324509045228213500e-01 1.139822061900915839e+00 -9.934002958654514215e-01 -2.039115346298618014e+00 -5.246593544609537418e-02 -3.917507935375930672e-01 6.573416582874185288e-01 7.266267235636706401e-01 1.817536114881105114e+00 2.738636469654167627e-01 1.059071932460142085e+00 2.734440428948099466e-01 1.655417762748492283e+00 -2.047688433388271112e-01 9.140653017216263665e-01 4.969942821586903307e-03 -9.094352587660578524e-02 -3.514173806918620135e-01 -5.612045035957038408e-01 2.299116632313766562e-01 1.834312050174581765e+00 -5.693132494160456636e-01 3.731617161449012343e-01 -3.943764043029342886e-02 4.062914115578737384e-01 1.239045569082559473e+00 -1.428928752328340046e+00 -2.612924941294793579e-01 -1.155665715111046543e+00 7.624859023182865014e-01 -3.152846365382721006e-01 7.125437619439290993e-01 2.678242794065247345e+00 -2.627353973428650846e+00 5.711114791156927106e-01 -8.852550599766650929e-01 -1.992656536775106943e-02 -1.163770861386665301e+00 3.946026613998300792e-01 6.914118633145330817e-01 -1.037152247757008733e-01 4.173255587969437741e-01 -9.909099251375730333e-01 -2.306331148380695584e-02 7.587038092554027058e-01 -2.035131164510552149e-02 -1.155052764066728965e+00 -2.512883309019601219e-01 -6.304648862795672049e-01 -1.814016274362350578e-01 9.112005783425203287e-01 -6.460473153869181751e-01 -1.442029038238608861e-02 -3.395548239457484296e-01 -1.246917773392510309e+00 1.344607874522010027e+00 -4.477489107986372119e-01 4.909115657969157498e-01 3.735062439969926151e-01 -1.638758041327512238e+00 4.790459237267535864e-01 2.806014804668397478e-01 1.806040711696772494e-01 5.110402198898487125e-01 -4.080757572993022331e-01 -7.358497855862245092e-03 2.171082369166486892e+00 1.046435987819184676e+00 1.857151675664866497e+00 8.037012036212365373e-01 -1.373332755634960378e+00 -1.522304027775901236e+00 -1.083016103959818510e+00 5.726767668496720587e-01 -7.120485674341322513e-01 4.403801285292797685e-01 -1.686468978194071988e-01 2.300931831295681060e-02 -2.954835410151632202e-01 -9.061586446264664474e-01 -7.154799619968275071e-01 4.140597432915223974e-01 4.591774652952506641e-01 -8.732258957319282144e-01 -6.658417260412552441e-01 -6.545473831407548904e-01 4.909434474787510716e-01 -5.670172541032276747e-01 -2.114562832141233251e-01 9.866969151492376022e-02 -3.196657966872550327e-01 1.327492553583189849e+00 6.777608470615927860e-01 2.932482237419674065e-01 -2.225598502442863516e-02 -4.512363554148817180e-01 2.695416221940316048e-01 -1.462548500044361655e+00 -3.489707187213384604e-02 1.113174632314008899e-01 -1.088947125222538226e+00 -2.855724517297762027e-02 -9.262996400155938392e-01 2.199321825962460928e-03 4.066734775192228923e-01 -1.236854989008068229e-01 -7.408989183917248367e-01 -2.745732714965900545e-01 -6.571056309977021392e-01 -6.913007916487841076e-01 1.061821984628776194e+00 1.139943932200834897e+00 -3.475401568041470712e-01 -1.340444743939126715e+00 -1.156777460209884811e+00 -2.068034602826628987e+00 -1.826871791231432229e-01 6.383160075418526924e-01 2.053334576397171721e-02 -8.385910764039236631e-02 3.895406730774605975e-01 2.150296026830532115e-01 5.299378296873985539e-01 3.275709111203906621e-01 -1.140911695510739288e-01 -3.133557947872350757e-02 1.289185170196025965e+00 9.925209785116062555e-01 2.244933199813962332e+00 9.756236871388858090e-01 3.667277870622633329e-01 5.588298325196471295e-01 1.876050313903766087e+00 -3.930605135962150776e-01 3.077980977343937607e-01 -9.060280325750765806e-01 1.319279420965870919e-01 9.072549631050617069e-01 7.432751321298058933e-01 1.347501908479577848e+00 2.863041877499643006e-01 -6.645114371556426480e-01 9.550672014445495961e-01 -6.514204072175195925e-01 3.541766888326416951e-01 1.849939730701312124e-01 7.589773746543767574e-01 -3.397754246152218105e-01 9.313050640637393629e-03 -5.408336515649573295e-01 1.625183129734436793e+00 1.466397441794964784e+00 -6.797899618442085901e-01 -5.335564005757076345e-01 7.662371421406843908e-01 4.762372504011966323e-01 -8.179194052784405367e-02 -5.466988525813070571e-02 -1.682128955699069839e-01 2.390514215046188440e+00 1.845286033594704667e-01 -3.816376155270240211e-01 -3.788531105731809956e-01 -1.838695267206263750e+00 -2.517979235906505631e-01 -4.376933255036417059e-01 -5.453366820138590976e-01 8.593583925749125330e-01 1.359454968064449654e+00 -2.722875605972673863e-01 -8.860068506031690827e-01 -4.904739640026922198e-01 -1.350434508987752746e+00 5.902764836641193336e-01 -5.205615299037652521e-01 -4.261943227745856877e-01 3.547078787896721375e-01 -5.413854103489781355e-01 3.554370437064864330e-01 -9.741607293191841821e-01 -1.659289844429459704e+00 -4.653275445654193043e-01 1.589943072672236113e+00 1.301366543760493100e+00 6.953903886751763297e-01 6.391295046493281617e-01 -1.758634707690347881e-02 -7.138719939468427533e-01 1.392946674832455711e+00 1.413070186718641041e+00 -1.093146765473329562e+00 -3.876467983323074740e-01 1.249452367098418559e+00 -9.501461095870653017e-02 -1.013714069401299378e+00 -7.456744857982512409e-01 8.629805630079451229e-02 -1.868600798988470646e-01 3.508450530808505663e-01 6.800172473824539487e-01 7.105619554633916257e-01 -2.686684754882835979e-01 1.109663019326050604e+00 -7.018227750957899413e-01 -1.502394945911091906e+00 1.386493205364176459e-02 1.272486368003763912e+00 6.442825100311307951e-01 -1.348548861773395946e-01 -6.092579114316556410e-01 1.167904167170412233e+00 -1.113015223904832318e+00 9.718986725709006791e-01 -1.543860158461977106e-01 1.344247920049675749e+00 1.180645527049696136e-01 1.760383057984542601e-02 2.813995509540723750e-01 1.685646225114450780e-01 2.754870416356443585e-01 1.435909812208925780e-02 1.055114490147164075e+00 -3.760758047087846001e-01 8.950201105904195265e-01 5.108545862262592330e-01 1.215804337245284472e+00 5.788427869607583043e-01 -4.817167859114738354e-02 1.213755682077027886e+00 2.021247206291943987e-01 -9.641653078431360324e-01 2.775033009013910812e-01 -6.804877592998623825e-01 1.841275112331551278e-01 1.263054532387256346e-01 -4.057237119329351605e-01 -1.801546422999341646e-01 8.562807818364545076e-01 -1.339353567667279199e+00 5.458555306746952773e-01 3.051508897007125243e-01 8.587577828267890512e-01 1.003202370367788809e+00 7.855409862712972036e-01 8.804332127094101346e-02 -1.862986023440730499e+00 -1.329792148440731125e+00 3.965824109976687217e-02 6.938487550922362024e-01 1.610796263695910349e-02 -3.851677404592738219e-01 3.012674951649003674e-01 1.965402841012654223e-01 -3.566115237276457628e-01 5.330668624933330296e-02 -1.816790494902698505e+00 -1.803871728890621196e+00 -8.680764898948489794e-02 -1.600079390613169394e+00 1.295807304045627495e+00 -6.407585557469781534e-01 3.366453633679378776e-01 -4.013857463206322862e-01 1.139400400947609970e+00 8.019276565139780155e-01 1.221870598545466979e+00 -7.963689310197871185e-01 1.815324451758948188e+00 -1.707545340990593408e+00 3.895211326918195938e-01 1.314153155059156086e+00 -1.567741595039332303e+00 1.035943829171315000e+00 5.142098761290895270e-01 6.048685237518764968e-01 -1.194154104175727094e+00 -8.562956942360226698e-02 -4.260616538404968234e-01 8.034142684847186411e-01 -1.674569911780049991e-01 -1.326996330632043364e+00 8.572012368442807340e-01 9.283194988260639047e-01 -1.068394753293600008e+00 -1.378694020390042407e+00 -1.305937965559138325e+00 -1.225354957837662795e+00 1.024678796849276319e+00 -1.057831117971938406e+00 -1.847027699020127756e+00 4.610158042075294116e-01 -1.357851113779862985e-02 -7.199115157719371272e-01 3.361815363193014217e-01 5.750478383810055938e-01 -8.383375656112653784e-01 1.453084782746018877e-01 -5.375030442545156717e-01 -3.328385877126655013e-01 -6.272119262910148541e-01 1.165555207128093684e+00 3.687373614592381887e-02 -7.901987971433027669e-01 4.969917110553165873e-01 -8.199315507787892088e-01 -1.651625385272113486e-02 8.547592028598300917e-01 2.837536532031385561e-01 -5.956650021149636487e-01 9.684317967816467171e-03 -1.223737219594857456e-01 3.529137628554231410e-01 -1.376049383459734821e-01 6.958069074217345662e-01 1.241513314100748389e+00 1.585903869271970690e+00 1.275473475903463827e+00 -5.775700907907193038e-01 -2.773526342436855030e-01 -5.557959305385439253e-01 1.063462862801945796e+00 1.822788364853137333e+00 -6.491501229384397664e-01 1.024111611445012587e-01 1.104720330200226419e+00 1.544441227824459306e-01 1.130709557323436254e+00 -4.578394630995166747e-01 -1.608081178533160571e-01 5.542244721564673071e-01 -1.059422116739656028e+00 7.140159757357764092e-02 -3.318266014247314155e-01 3.825159044395197161e-01 -4.208489988604216525e-01 -1.522357506726076393e+00 -1.870640198184581715e+00 8.649274024825988061e-01 2.427173006950061052e-01 5.019822227038939905e-02 2.372228527851607538e-01 2.082490888656248484e-01 -1.041161112137463096e+00 4.808662649154154534e-01 -1.732291182522225914e-01 -2.745573306556723936e-01 4.844411270463696573e-01 9.066378982953457455e-02 -1.450383067320812680e+00 -1.097796348814539025e+00 1.409180621534731614e-01 5.536413459112857760e-01 -3.212259422144867482e-01 -4.810015049528782449e-01 8.004276748056935453e-01 1.223305788448730835e+00 -5.073280608387328305e-01 -8.305589494641214821e-02 -5.219617528011456509e-01 1.056271486665381287e+00 9.760422627681428764e-01 5.950751910010102508e-01 -1.250519374998552369e+00 8.755347465616153402e-01 -2.364283818426514763e-02 1.973753784770809483e-01 1.895679659721503929e-01 8.231829681053173253e-01 -3.531431052763675527e-01 -2.286410753661041184e+00 -2.081421309652741192e-01 2.056034234939679017e-01 -3.235111388931347087e-01 -4.695919766212310331e-01 1.842848627596326561e-01 -1.623446092295086851e+00 -1.272833466959229387e+00 -1.174229595690674977e+00 -1.109403852105969923e+00 5.622627697443666195e-01 4.777721991153649483e-01 -6.995530050373850450e-01 -2.941827683962821016e+00 1.075302279617694895e-01 -8.576501514933492221e-01 -1.514446221644843771e+00 -8.124820358634938788e-01 -8.705704601674506271e-02 3.000554770344833755e-01 -6.110566553519775068e-01 1.211086876775006482e+00 -1.094129955403476906e+00 -1.003766984668678974e+00 8.146669595105630046e-01 -1.673032391962508081e+00 5.660798298131342748e-02 1.965161157295515493e-01 -1.031937535894234648e+00 -1.018040207938082586e+00 -7.658992991573649878e-01 9.585160795101866915e-01 -5.019647392009519704e-01 -4.137974907473930819e-01 -4.682190074196130869e-01 -2.763159653633627255e-01 1.506131273333922049e+00 4.909809855880087892e-01