1.156280899999999967e+01 1.328900900000000007e+01 5.349299000000000248e+00 2.536359000000000030e+00 1.175670900000000074e+01 1.490980899999999920e+01 7.610078999999999816e+00 1.167250899999999980e+01 9.097849000000000075e+00 1.049900899999999915e+01 5.908399999999999763e-02 5.107220000000000093e-01 1.099430899999999944e+01 3.869978999999999836e+00 1.154630900000000082e+01 1.368510900000000063e+01 1.038670899999999975e+01 4.756259000000000015e+00 6.282398999999999845e+00 4.579508999999999830e+00 1.420149000000000106e+00 1.171540899999999930e+01 1.103250899999999923e+01 1.272408999999999901e+00 7.139688999999999730e+00 1.314530899999999924e+01 5.055989000000000289e+00 1.149780900000000017e+01 2.126179000000000041e+00 6.125048999999999744e+00 1.054320899999999916e+01 1.367490899999999954e+01 1.260650900000000085e+01 6.325328999999999979e+00 1.464080900000000085e+01 3.169818999999999942e+00 1.488980899999999963e+01 5.239908999999999928e+00 4.361149000000000164e+00 5.576569000000000109e+00 7.860649000000000441e+00 9.011938999999999922e+00 4.153309000000000140e+00 4.145499000000000045e+00 1.361500900000000058e+01 5.117308999999999664e+00 8.678690000000000015e-01 1.091970899999999922e+01 3.998869000000000007e+00 9.063948999999999145e+00 1.083920900000000032e+01 1.414470900000000064e+01 1.317640899999999959e+01 1.455280899999999988e+01 9.542990000000000084e-01 1.756758999999999959e+00 3.902979000000000198e+00 9.836809000000000580e+00 5.987428999999999668e+00 2.995178999999999814e+00 1.430090900000000076e+01 6.348438999999999943e+00 2.042448999999999959e+00 6.768829000000000207e+00 3.983779000000000181e+00 1.111590900000000026e+01 3.233448999999999796e+00 1.140540900000000057e+01 1.105590899999999976e+01 6.772048999999999985e+00 5.126559000000000310e+00 9.159159000000000717e+00 1.280200899999999997e+01 1.266180899999999987e+01 9.024129000000000289e+00 1.268840900000000005e+01 9.936908999999999992e+00 8.401039000000000811e+00 7.668428999999999718e+00 1.210770899999999983e+01 8.102589999999999515e-01 5.381069000000000102e+00 1.699368999999999907e+00 8.437419000000000224e+00 1.134940899999999964e+01 9.084090000000000220e-01 8.125239000000000544e+00 1.424860900000000008e+01 3.530349000000000181e+00 1.336660900000000041e+01 4.551509000000000249e+00 1.476970900000000064e+01 7.046399000000000079e+00 1.391810899999999940e+01 7.688949000000000034e+00 1.105210899999999974e+01 1.187850899999999932e+01 9.608299000000000589e+00 1.034940899999999964e+01 4.277159000000000155e+00 5.873959000000000152e+00 2.390419000000000072e+00 2.323898999999999937e+00 1.157348999999999961e+00 1.518500900000000087e+01 1.692039000000000071e+00 8.709958999999999563e+00 1.163810900000000004e+01 1.263310899999999926e+01 2.548208999999999946e+00 1.199570899999999973e+01 1.404570900000000044e+01 1.076290900000000050e+01 1.780338999999999894e+00 3.346709000000000156e+00 1.300000900000000037e+01 1.290800899999999984e+01 1.427700899999999962e+01 8.946878999999999138e+00 6.680678999999999590e+00 7.473048999999999609e+00 7.673188999999999815e+00 1.284530900000000031e+01 1.143890900000000066e+01 2.159999999999999976e-01 4.714508999999999617e+00 6.101949000000000289e+00 1.390530900000000081e+01 1.107458999999999971e+00 8.517659000000000091e+00 1.110220900000000022e+01 4.375678999999999874e+00 5.992129000000000261e+00 8.472129000000000687e+00 3.391008999999999940e+00 1.357509000000000077e+00 5.273449000000000275e+00 6.000719000000000136e+00 1.606589000000000045e+00 6.926579000000000264e+00 7.820869000000000071e+00 1.747128999999999932e+00 1.112910000000000010e-01 1.245050900000000027e+01 8.494498999999999356e+00 9.018708999999999421e+00 5.984809000000000268e+00 3.587609000000000048e+00 1.149240900000000032e+01 5.925838999999999857e+00 4.821409000000000056e+00 8.379189999999999694e-01 4.924180000000000224e-01 1.142719000000000040e+00 1.054910899999999963e+01 6.979778999999999733e+00 6.987369000000000163e+00 1.437440899999999999e+01 1.115890899999999952e+01 1.333290900000000079e+01 1.265460900000000066e+01 5.663738999999999635e+00 1.082890899999999945e+01 1.394400899999999943e+01 8.615308999999999884e+00 5.591839000000000226e+00 8.537729000000000568e+00 1.415240900000000046e+01 1.303370899999999999e+01 8.218458999999999293e+00 1.331160900000000069e+01 9.122139000000000664e+00 7.824698999999999849e+00 1.076220900000000036e+01 1.499880899999999961e+01 1.409770900000000005e+01 8.565239000000000047e+00 1.459730899999999920e+01 2.977358999999999867e+00 7.796869000000000050e+00 4.258719000000000143e+00 1.302970900000000043e+01 3.327148999999999912e+00 7.779798999999999687e+00 9.160389000000000337e+00 9.528928999999999760e+00 1.081750899999999938e+01 1.151650899999999922e+01 3.578228999999999882e+00 1.311030900000000088e+01 1.504370899999999978e+01 2.154200000000000004e-01 6.712138999999999633e+00 1.072070899999999938e+01 1.397100900000000046e+01 1.192690900000000020e+01 6.371679000000000315e+00 2.305178999999999867e+00 6.982769000000000226e+00 3.586739000000000122e+00 7.276409000000000127e+00 3.863608999999999849e+00 2.667508999999999908e+00 1.203490900000000074e+01 3.812079000000000217e+00 7.286908999999999637e+00 7.290418999999999983e+00 9.886008999999999602e+00 1.251760900000000021e+01 1.526810900000000082e+01 7.718500000000000361e-02 6.427819000000000393e+00 9.776609000000000549e+00 4.298369000000000106e+00 1.293350900000000081e+01 8.084429000000000087e+00 1.215340899999999991e+01 6.754300000000000581e-02 2.279028999999999971e+00 2.249909000000000159e+00 9.328739000000000559e+00 1.360060900000000039e+01 6.175409000000000148e+00 2.694908999999999999e+00 4.736219000000000179e+00 1.304170900000000088e+01 1.255180900000000044e+01 1.254650900000000036e+01 1.084260899999999950e+01 6.103809000000000040e+00 1.172140899999999952e+01 4.067198999999999565e+00 6.846059000000000339e+00 4.627809000000000061e+00 1.505040900000000015e+01 1.644298999999999955e+00 1.214210899999999960e+01 4.811278999999999861e+00 2.956329000000000207e+00 3.220409000000000077e+00 6.195028999999999897e+00 2.991969000000000101e+00 1.482570899999999980e+01 1.523485600000000062e+01 5.427049000000000234e+00 1.493380900000000011e+01 2.502308999999999894e+00 1.395540899999999951e+01 5.059739000000000431e+00 1.374150900000000064e+01 6.946989999999999554e-01 7.936829000000000356e+00 8.689418999999999116e+00 2.547550000000000092e-01 1.156720900000000007e+01 4.474839000000000233e+00 4.741388999999999854e+00 9.549538999999999334e+00 2.647988999999999926e+00 3.266179000000000165e+00 9.751308999999999116e+00 8.374829000000000079e+00 7.178059000000000189e+00 1.492910900000000041e+01 1.152660900000000055e+01 6.241488999999999621e+00 4.509718999999999589e+00 1.089500899999999994e+01 6.958078999999999681e+00 1.404010899999999928e+01 6.901009000000000171e+00 1.184480899999999970e+01 1.150160900000000019e+01 8.740698999999999330e+00 1.307940900000000006e+01 7.388479000000000241e+00 1.048248999999999986e+00 3.163098999999999883e+00 6.048678999999999917e+00 7.999869000000000341e+00 7.404319000000000095e+00 1.881458999999999993e+00 8.673419000000000878e+00 2.711319000000000035e+00 1.182820899999999931e+01 1.065058999999999978e+00 1.041679000000000022e+00 2.067248999999999892e+00 9.729100000000000248e-02 1.387110900000000058e+01 5.732699000000000211e+00 1.354800900000000041e+01 1.007770900000000047e+01 1.251630899999999968e+01 5.167818999999999718e+00 1.089180900000000030e+01 3.810688999999999993e+00 5.237899999999999778e-01 4.205879000000000367e+00 9.103519000000000361e+00 4.183990000000000209e-01 1.171040900000000029e+01 4.676819999999999866e-01 4.230618999999999907e+00 6.274249000000000187e+00 1.502070900000000009e+01 8.189529000000000281e+00 6.295049999999999812e-01 1.444410899999999920e+01 2.359389000000000181e+00 1.339000899999999916e+01 9.497308999999999557e+00 1.266440899999999914e+01 4.364059000000000133e+00 5.236169000000000295e+00 9.854190000000000449e-01 7.324648999999999965e+00 1.335020899999999955e+01 3.644509000000000221e+00 6.144629000000000119e+00 1.129769000000000023e+00 1.689060000000000006e-01 1.359920900000000010e+01 7.145618999999999943e+00 4.718929000000000151e+00 2.329788999999999888e+00 4.389898999999999774e+00 1.155348999999999959e+00 2.773149000000000086e+00 4.755499000000000365e+00 2.165418999999999983e+00 1.096930900000000086e+01 6.177259000000000277e+00 1.142330899999999971e+01 1.105810899999999997e+01 2.507308999999999788e+00 1.312940900000000077e+01 1.078720900000000071e+01 7.204890000000000461e-01 1.150640899999999966e+01 2.708998999999999935e+00 1.121420900000000032e+01 1.017200899999999919e+01 1.333130899999999919e+01 7.549119000000000135e+00 1.346940900000000063e+01 1.134060900000000061e+01 1.280960900000000002e+01 7.543778999999999790e+00 1.160820900000000044e+01 1.038390899999999917e+01 2.256768999999999803e+00 1.193070900000000023e+01 1.027650900000000078e+01 1.090848999999999958e+00 1.403310899999999961e+01 9.161728999999999346e+00 1.263598999999999917e+00 3.035468999999999973e+00 9.243709000000000842e+00 1.319190900000000077e+01 1.352020899999999948e+01 2.902049999999999907e-01 3.682329999999999770e-01 7.248299000000000269e+00 8.632849000000000217e+00 4.895218999999999987e+00 7.606990000000000141e-01 7.359109000000000123e+00 1.388640900000000045e+01 1.357420899999999975e+01 1.325000900000000037e+01 5.450148999999999688e+00 1.367430899999999916e+01 7.413458999999999577e+00 1.339850900000000067e+01 2.116439000000000181e+00 8.229748999999999981e+00 1.316290900000000086e+01 9.305459000000000813e+00 7.326928999999999803e+00 1.105860900000000058e+01 1.160930899999999966e+01 1.379190000000000138e-01 5.489798999999999651e+00 3.687778999999999918e+00 1.394580900000000057e+01 6.054699999999999666e-02 2.656619000000000064e+00 1.289600899999999939e+01 1.148440899999999942e+01 1.262650900000000043e+01 3.974568999999999797e+00 1.480680899999999944e+01 1.509900000000000131e-01 8.268428999999999363e+00 1.403650900000000057e+01 1.374220900000000078e+01 4.897369000000000305e+00 1.076690900000000006e+01 5.615948999999999636e+00 1.983289000000000080e+00 7.763018999999999892e+00 1.124490899999999982e+01 1.487610899999999958e+01 7.521138999999999797e+00 1.193320899999999973e+01 4.227528999999999648e+00 5.068878999999999913e+00 1.477020899999999948e+01 4.517490000000000117e-01 1.391210899999999917e+01 4.194558999999999926e+00 4.475418999999999592e+00 1.519260000000000055e-01 2.315579000000000054e+00 7.031228999999999729e+00 9.267338999999999771e+00 6.542249999999999455e-01 1.527362399999999987e+01 9.628519000000000716e+00 1.367980900000000055e+01 1.432860900000000015e+01 5.382888999999999591e+00 5.645088999999999579e+00 8.798868999999999829e+00 3.468148999999999926e+00 1.446770899999999926e+01 6.152028999999999748e+00 1.337730900000000034e+01 9.399428999999999590e+00 1.367460900000000024e+01 1.908398999999999957e+00 3.943868999999999847e+00 6.648309000000000246e+00 1.143620899999999985e+01 5.203769000000000311e+00 1.089250900000000044e+01 9.472279000000000337e+00 3.747628999999999877e+00 1.158730899999999941e+01 1.456190899999999999e+01 4.058169000000000359e+00 8.387579000000000562e+00 2.832259000000000082e+00 1.026950899999999933e+01 1.461430900000000044e+01 4.796878999999999671e+00 7.956779000000000046e+00 1.004340900000000047e+01 7.216048999999999936e+00 1.647649999999999948e-01 1.356420899999999996e+01 5.364359000000000322e+00 1.486070899999999995e+01 1.112860900000000086e+01 5.026698999999999806e+00 7.699989000000000416e+00 4.203719000000000428e+00 7.249590000000000201e-01 5.324468999999999674e+00 1.018370900000000034e+01 3.826039000000000190e+00 1.228820900000000016e+01 1.194110900000000086e+01 1.500010900000000014e+01 5.792779000000000345e+00 9.076689999999999481e-01 4.861150000000000193e-01 7.831559000000000381e+00 1.213280899999999995e+01 1.199929000000000023e+00 6.595628999999999742e+00 6.670829000000000342e+00 8.122408999999999324e+00 1.016750900000000080e+01 5.390799000000000341e+00 1.183470900000000015e+01 7.082888999999999768e+00 3.485879000000000172e+00 3.433889000000000191e+00 4.031788999999999845e+00 8.752888999999999697e+00 1.029260900000000056e+01 7.333758999999999695e+00 1.110470899999999972e+01 8.317128999999999550e+00 1.314450899999999933e+01 5.920538999999999774e+00 3.082189000000000068e+00 1.292950899999999947e+01 3.992398999999999809e+00 7.026158999999999821e+00 1.313790900000000050e+01 1.188080899999999929e+01 4.590328999999999660e+00 7.599878999999999607e+00 1.482270899999999969e+01 1.323770900000000061e+01 5.369739999999999513e-01 1.531819000000000042e+00 1.158130899999999919e+01 1.303430900000000037e+01 1.242960899999999924e+01 4.161989000000000161e+00 3.359398999999999802e+00 2.070599000000000078e+00 1.304250900000000080e+01 6.603569000000000244e+00 1.620428999999999897e+00 1.483740899999999918e+01 5.961469000000000129e+00 3.157639000000000085e+00 9.799108999999999625e+00 1.064180900000000030e+01 3.987549000000000010e+00 2.751119000000000092e+00 2.507419000000000064e+00 1.099920900000000046e+01 5.624318999999999846e+00 9.899209000000000813e+00 1.427090899999999962e+01 1.210050900000000063e+01 7.633358999999999561e+00 1.427370900000000020e+01 8.560449000000000197e+00 8.034449000000000396e+00 6.726359000000000421e+00 1.040490899999999996e+01 1.008789999999999965e-01 8.910418999999999201e+00 2.010079000000000171e+00 1.854379000000000000e+00 2.793299000000000198e+00 1.747258999999999896e+00 1.114268999999999954e+00 1.384760900000000028e+01 1.007440899999999928e+01 5.602939000000000114e+00 4.491458999999999868e+00 6.921109000000000400e+00 3.902819000000000038e+00 3.045080000000000009e-01 1.383710899999999988e+01 9.358518999999999366e+00 1.093230900000000005e+01 4.100558999999999621e+00 1.084410899999999955e+01 4.665868999999999822e+00 3.236959000000000142e+00 3.191339000000000148e+00 1.322310899999999911e+01 1.255490900000000032e+01 1.145370899999999992e+01 8.677429000000000059e+00 3.476849000000000078e+00 6.140569000000000166e+00 3.453939000000000092e+00 3.048668999999999851e+00 8.415438999999999226e+00 1.150110899999999958e+01 1.212530899999999967e+01 1.080529999999999963e-01 3.621398999999999813e+00 2.848449000000000009e+00 6.689868999999999843e+00 8.291738999999999749e+00 1.412500900000000037e+01 9.019778999999999769e+00 5.321178999999999881e+00 1.095590900000000012e+01 5.824359000000000286e+00 1.322320900000000066e+01 1.231600899999999932e+01 5.863078999999999930e+00 5.461858999999999575e+00 5.298649000000000164e+00 1.207330900000000007e+01 3.141008999999999940e+00 5.857898999999999745e+00 5.651578999999999908e+00 1.938088999999999951e+00 1.192640899999999959e+01 1.369780899999999946e+01 9.185209000000000401e+00 1.074699999999999961e-01 8.693589999999999929e-01 3.205909000000000120e+00 3.850268999999999942e+00 1.186270900000000061e+01 7.226009000000000349e+00 1.186860899999999930e+01 9.103319000000000827e+00 9.071329000000000420e+00 9.019189000000000789e+00 6.936289000000000371e+00 2.548688999999999982e+00 1.109590900000000069e+01 1.461230899999999977e+01 5.634928999999999633e+00 6.596769000000000105e+00 3.398388999999999882e+00 3.666529000000000149e+00 2.247999000000000080e+00 8.001229000000000369e+00 1.415420899999999982e+01 9.694309000000000509e+00 1.443170899999999968e+01 1.208780900000000003e+01 9.076079000000000008e+00 1.400058999999999942e+00 1.184660900000000083e+01 5.879218999999999973e+00 1.776858999999999966e+00 1.248770000000000019e-01 1.315320900000000037e+01 3.665008999999999961e+00 1.269140900000000016e+01 1.367300900000000041e+01 1.051640899999999945e+01 3.248248999999999942e+00 9.646478999999999360e+00 7.341629000000000183e+00 1.469560899999999926e+01 4.317338999999999594e+00 1.031790900000000022e+01 1.037890900000000016e+01 1.217340899999999948e+01 1.281210899999999953e+01 6.501618999999999815e+00 1.128870900000000077e+01 1.016670900000000088e+01 1.142980900000000055e+01 3.490178999999999920e+00 6.951889000000000429e+00 5.915358999999999590e+00 1.357890899999999945e+01 1.457338999999999940e+00 1.187730900000000034e+01 6.134108999999999590e+00 8.364138999999999768e+00 1.290900899999999929e+01 5.027398999999999951e+00 7.453738999999999670e+00 7.576418999999999571e+00 1.463298999999999905e+00 4.548550000000000093e-01 7.970990000000000020e-01 8.925618999999999303e+00 8.518788999999999945e+00 9.851608999999999838e+00 8.390990000000000393e-01 5.232909000000000255e+00 4.839539000000000257e+00 6.873039000000000343e+00 1.449030899999999988e+01 4.517718999999999596e+00 1.409230900000000020e+01 6.881878999999999635e+00 9.936809000000000225e+00 4.644789000000000279e+00 1.437980899999999984e+01 2.940049000000000134e+00 6.354938999999999893e+00 2.930889000000000078e+00 8.298028999999999655e+00 6.979428999999999661e+00 8.024748999999999910e+00 2.633948999999999874e+00 1.269490900000000089e+01 6.484299999999999786e-02 7.646409000000000233e+00 6.241869000000000334e+00 1.247080899999999914e+01 9.897390000000000354e-01 7.686599000000000181e+00 6.598829000000000278e+00 1.398100900000000024e+01 8.691269000000000133e+00 1.280400900000000064e+01 1.244199000000000055e+00 1.097120899999999999e+01 1.458129000000000008e+00 5.094489000000000267e+00 7.061208999999999847e+00 1.125260899999999964e+01 1.282540900000000050e+01 6.005209999999999715e-01 6.521150000000000002e-01 1.164940900000000035e+01 1.325800899999999949e+01 7.404328999999999716e+00 1.223670899999999939e+01 7.181409000000000376e+00 3.022318999999999978e+00 1.171280900000000003e+01 1.378760899999999978e+01 1.137700899999999926e+01 5.788668999999999620e+00 1.154010899999999928e+01 6.456000000000000627e-02 1.486650900000000064e+01 8.111449000000000353e+00 7.715029000000000359e+00 1.177880900000000075e+01 6.425079999999999680e-01 6.120478999999999559e+00 1.373200899999999969e+01 7.582048999999999594e+00 4.769159000000000148e+00 7.573889000000000316e+00 6.306699999999999806e-02 1.249850900000000031e+01 1.468240899999999982e+01 7.954409000000000063e+00 1.494080899999999978e+01 1.044210900000000031e+01 1.514730899999999991e+01 1.132320900000000030e+01 1.592359000000000080e+00 6.902358999999999689e+00 3.169159000000000059e+00 5.823758999999999908e+00 1.116190899999999964e+01 1.912169000000000008e+00 7.352139000000000202e+00 5.105659000000000169e+00 4.380169000000000423e+00 1.099000900000000058e+01 3.644328999999999930e+00 1.512308999999999903e+00 5.380420000000000202e-01 1.858719000000000010e+00 1.214110900000000015e+01 7.320889999999999898e-01 1.723748999999999976e+00 1.017500899999999930e+01 1.218910900000000019e+01 7.930138999999999605e+00 1.306980899999999934e+01 8.502928999999999959e+00 7.416729000000000127e+00 5.086998999999999604e+00 1.034370900000000049e+01 7.678448999999999636e+00 7.951698999999999629e+00 6.016460000000000141e-01 2.637579000000000118e+00 1.415550900000000034e+01 1.220910899999999977e+01 4.731569000000000358e+00 1.503449000000000035e+00 1.196030900000000052e+01 4.115699000000000218e+00 5.502669000000000032e+00 1.405350900000000003e+01 3.651848999999999901e+00 1.337600899999999982e+01 9.234569000000000472e+00 1.398730899999999977e+01 1.320440900000000006e+01 9.009309000000000012e+00 1.235050900000000063e+01 3.451099000000000139e+00 6.225158999999999665e+00 6.796679000000000137e+00 8.309238999999999820e+00 9.357179000000000357e+00 7.106109000000000009e+00 1.456010900000000063e+01 2.106799000000000088e+00 1.091590899999999920e+01 1.500940899999999978e+01 1.758779000000000092e+00 7.646768999999999927e+00 1.041300900000000063e+01 8.758459000000000216e+00 3.245849000000000206e+00 1.270870900000000070e+01 1.429230899999999949e+01 1.481550900000000048e+01 4.149418999999999969e+00 1.449490899999999982e+01 1.064799000000000051e+00 1.411740900000000032e+01 4.925398999999999639e+00 5.024109000000000158e+00 1.758299000000000056e+00 9.773009000000000057e+00 5.964858999999999689e+00 9.714009000000000782e+00 3.559058999999999973e+00 2.828299999999999911e-02 9.947708999999999691e+00 7.331738999999999784e+00