-7.780061107181926491e+04
-7.780287690555100562e+04
-7.779957890885439701e+04
-7.780303175701653527e+04
-7.779887839278533647e+04
-7.779221586761182698e+04
-7.780922222254764347e+04
-7.779639789699141693e+04
-7.780303125907560752e+04
-7.779850100310603739e+04
-7.781548083614163625e+04
-7.780397410075266089e+04
-7.778823510886910663e+04
-7.778980141285886930e+04
-7.780073696271950030e+04
-7.779621829746586445e+04
-7.781137776703647978e+04
-7.778774537003875594e+04
-7.779446870878334448e+04
-7.780095930164188030e+04
-7.781969737094182346e+04
-7.778841477432873216e+04
-7.780444572247164615e+04
-7.780539014154483448e+04
-7.779812933756558050e+04
-7.780028689533300349e+04
-7.780224966619092447e+04
-7.780985454291511269e+04
-7.781315368797664996e+04
-7.779204091650818009e+04
-7.780279531391148339e+04
-7.781325210810970748e+04
-7.779860010712212534e+04
-7.779716901048267027e+04
-7.778994919718713209e+04
-7.779404173133886070e+04
-7.779845529870287282e+04
-7.780205526752675360e+04
-7.779680761455078027e+04
-7.780946079842843756e+04
-7.780416475336451549e+04
-7.779905200129398145e+04
-7.780044429928615864e+04
-7.780137956373614725e+04
-7.780272048437171907e+04
-7.780945253298204625e+04
-7.780806476183651830e+04
-7.779831701748722116e+04
-7.781286649445888179e+04
-7.780960610310320044e+04
-7.778956017288797011e+04
-7.780328021435026312e+04
-7.780369949256931432e+04
-7.780037867535917030e+04
-7.780090233022882603e+04
-7.778999120674053847e+04
-7.779540110258263303e+04
-7.779371752875168750e+04
-7.779445355031410872e+04
-7.779862161164487770e+04
-7.780698333895666292e+04
-7.778776602364808787e+04
-7.779789826349103532e+04
-7.780005441917285498e+04
-7.780502016189736605e+04
-7.779676072772181942e+04
-7.780128242696319649e+04
-7.779531052488322894e+04
-7.779998524683191499e+04
-7.779747812757416978e+04
-7.781529962262162007e+04
-7.780378018629507278e+04
-7.781421731622115476e+04
-7.780672851324571820e+04
-7.779865401296492200e+04
-7.778644028939229611e+04
-7.779549705963689485e+04
-7.779633946980471956e+04
-7.780838061392823874e+04
-7.778614432520505216e+04
-7.779737072229982005e+04
-7.779877038117779011e+04
-7.780984944809932495e+04
-7.780769513430871302e+04
-7.780285566833797202e+04
-7.779913734692717844e+04
-7.779787497403474117e+04
-7.780513292318317690e+04
-7.779225116730343143e+04
-7.779564177053674939e+04
-7.780879422509328288e+04
-7.780406904672468954e+04
-7.780656281608538120e+04
-7.780185151313700771e+04
-7.779454360080319748e+04
-7.780020195263360802e+04
-7.780788682573700498e+04
-7.781076202290960646e+04
-7.779468573597104114e+04
-7.780589262264619174e+04
-7.779586367878246529e+04
-7.779286642369536276e+04
-7.779153279283591837e+04
-7.780916424333838222e+04
-7.780423473577764526e+04
-7.779132390379025310e+04
-7.780255761269839422e+04
-7.780723931395095133e+04
-7.780964887291945342e+04
-7.780333181945505203e+04
-7.782310042773518944e+04
-7.780488500803748320e+04
-7.780400753091361548e+04
-7.780952045802261273e+04
-7.781211593890243967e+04
-7.780570680809176702e+04
-7.779342191401023592e+04
-7.779161308021855075e+04
-7.780785056369790982e+04
-7.781000281239693868e+04
-7.780709182334873185e+04
-7.781058243356840103e+04
-7.782830688581024879e+04
-7.780399684533159598e+04
-7.781101725976447051e+04
-7.780665570828250202e+04
-7.780337604914644908e+04
-7.779894650146961794e+04
-7.780062942187579756e+04
-7.779638831877439225e+04
-7.779668390710576205e+04
-7.780745934342655528e+04
-7.780009785274737806e+04
-7.780263623088039458e+04
-7.780536371677364514e+04
-7.780496104768758232e+04
-7.780196892148425104e+04
-7.781939210722285497e+04
-7.780096266443537024e+04
-7.780706785409501754e+04
-7.780478954535165394e+04
-7.780371855930275342e+04
-7.780347188804841426e+04
-7.779481989303287992e+04
-7.779638483295164770e+04
-7.780092891749336559e+04
-7.779913376812821662e+04
-7.780332390544294321e+04
-7.781170709787993110e+04
-7.779705644199720700e+04
-7.779995600176900916e+04
-7.781277436469406530e+04
-7.780498402443673695e+04
-7.779261121364860446e+04
-7.780668852005792724e+04
-7.780196909233496990e+04
-7.779771943435061257e+04
-7.779332636628772889e+04
-7.780989034029388858e+04
-7.780892345026842668e+04
-7.779995913798517722e+04
-7.780194085347445798e+04
-7.780937582734251919e+04
-7.779701228931754304e+04
-7.780260817461246916e+04
-7.779023604330197850e+04
-7.780531232734370860e+04
-7.780038369134489039e+04
-7.781048863792316115e+04
-7.780182564543878834e+04
-7.780253710950854293e+04
-7.780330595581304806e+04
-7.779719521050831827e+04
-7.779941567873167514e+04
-7.778911403026616608e+04
-7.780212264841467550e+04
-7.780491409896383993e+04
