-2.438610303198145868e+00 1.870464848934487501e+00 3.667750953643415524e-01 1.937644694768258846e+00 -2.464674092319196319e+00 2.822187044889702401e-01 1.773441692020155891e+00 3.147421337263968333e+00 -1.568183310598953994e+00 1.359185516430873708e+00 2.293398498410399167e-01 -2.927566801989611722e+00 -3.904483239904851466e+00 3.514874175477647800e+00 -4.232950951882029855e+00 3.212387977313558629e+00 -7.593913222975612332e-01 -2.029151292283730701e+00 8.439749668686949979e-01 -3.941225849778711154e+00 -3.196473361650310707e+00 2.129022203294900883e+00 1.593828009870072560e+00 -5.813559376645287990e+00 6.278297624317429992e+00 1.264883101106714536e+00 -1.812019041261570207e+00 1.354670144685777622e+00 3.867413071461168972e+00 -1.117791305532033652e+00 -3.458733619089694677e+00 1.444242244022789778e+00 3.934608343915182438e+00 -2.152561168902864086e+00 -2.312387125267382437e+00 1.905008136982384137e+00 -2.531843139518797692e+00 -1.136663718516519817e+00 -4.358040273224940364e+00 -1.083971011752853819e+00 1.623343248160133978e-01 -1.991645064707847856e+00 2.473355165750549478e+00 -7.103444401179667168e-03 3.027685053145343641e+00 -1.730645676362983221e-01 -1.778221373192080124e-01 -3.090906942445462047e+00 4.425941570665404612e+00 -1.426296970914901596e+00 -5.229276649166209268e+00 -4.859498505061250473e-01 -2.516246312232552906e-01 -4.839752431150340928e-01 2.359274794833645661e+00 7.394184770690813702e-01 -4.586814480323740284e+00 1.602959540612518552e+00 -1.190867719843315076e+00 2.916250861820771423e+00 2.661796474224293885e-01 -2.860131388480482872e+00 -3.432071277103219131e+00 -5.433858316179422943e+00 8.884324809480949270e+00 -5.345501834517550677e+00 8.014957111471768814e-01 1.233029701408504319e+00 -2.284545161053000317e+00 -5.803869916470724144e-01 5.914010842798266276e-01 -4.707042873628114243e+00 1.448305615794768908e+00 3.433771290653986785e+00 -4.798028565600050421e-01 -9.088655022584202214e-01 3.974920673713248753e+00 -3.163151347704976635e-01 -3.121377088528558996e+00 -1.179013904848672523e+00 -3.976368719133382523e+00 9.964280271984574666e-01 5.602485673613187833e-01 -5.440439312375042746e-01 1.032189504024868532e+00 -6.415887650263834452e+00 1.062110462427318325e+00 6.926439360512659071e+00 -4.363846338863692775e-01 1.921834465901987699e+00 9.996084820718683650e-01 -1.591888369484865395e-01 -1.585562940964602596e+00 -1.516180173760145466e+00 2.759341050902835768e+00 -4.006601809485412641e-02 -2.600953883986305115e+00 1.675826667109171497e+00 4.428547126824430080e+00 -1.455250680228121762e+00 5.353088646353008212e-02 -4.939533867764103192e+00 8.549556351575896551e-01 -2.305153583035487674e+00 -3.500269279873021722e-01 2.720613035003715541e-01 3.072354374720678738e+00 3.132991276688762206e+00 4.792616907218842037e+00 -2.432295673312052653e+00 -1.391244090178314297e+00 -6.962690889642118464e+00 -1.481107238417242566e+00 3.289611067146130718e+00 -2.911437756304987357e+00 3.127475231510576492e+00 1.767739498957705990e+00 -1.000040427438669610e+00 4.981862456827915508e+00 -1.031005768031563408e+00 -5.496699167959541832e+00 -2.194859933167540245e+00 3.896311759162188970e+00 -1.614828782227404114e+00 1.728778541092917953e+00 1.123046126607439410e+00 -9.771776620180201434e-01 2.174109586278818451e-01 -2.458874711549216552e-01 1.127068360725437479e+00 -3.929671311216781149e+00 3.019695092300872297e+00 -1.108356384591477228e+00 -5.723303363810840594e+00 1.210154594691660757e+00 2.872730309232857770e+00 1.245477955503173417e+00 5.361600026961689913e+00 -1.847629851430275361e+00 -8.050124663418828375e-02 5.697251915985985349e+00 -4.877131131998882485e-01 4.614230669819419095e-01 1.827758821895398622e+00 -9.741555871124364385e-01 1.023668353223366578e+00 8.465820656897447838e-02 -7.606907579426879229e-01 -3.482344061371450028e+00 -8.639277574908591495e-01 1.090553036389823705e+00 1.679888496219126282e+00 -2.319728139620302443e+00 1.085139321125916156e+00 4.164657818287396673e-01 -3.095654741935550902e+00 -5.737482484696763585e+00 -3.325837399462527877e+00 1.339619933976806454e+00 2.350431741889742021e+00 2.244372185057795566e+00 7.007213144104470492e-01 -3.859728043476831516e+00 3.803647136687150709e+00 -1.725317321731086428e+00 -3.522337574351162015e+00 -1.219226990056508919e+00 2.356267118106955549e-01 -4.429026380493309212e+00 -6.237745667684923667e+00 1.769500704768770083e+00 7.540629676656643854e-01 -6.708333175532495751e+00 1.176856594851838089e+01 1.558411575116427805e+00 -1.273986863932723201e+00 -2.009825336664103013e+00 -5.458689004122390998e+00 -9.698247691675128124e+00 -1.013749550627857987e+00 2.698021778099341184e+00 3.490092852719457017e+00 -5.916700216927278655e-01 -8.812600795544293097e-01 1.427875628386424900e+00 -4.155321113495720198e+00 -9.508541914562143038e-01 -5.537997258791128585e-01 2.856794096301269459e-01 -6.672400977442063841e+00 -1.499292652580245466e+00 3.738708264553997740e+00 1.004929123393643708e+00 8.392364233507515481e-01 2.402161313329576497e+00 -2.362548323649188653e+00 1.186327665505830242e-01 2.276316087594763837e-01 -3.566115237276457628e-01 -6.804579345007259750e-02 -4.117287809728204628e+00 -2.488714937305728014e+00 -3.270783905581024165e+00 -1.783452540116446716e+00 -2.790755820365472761e+00 -4.135318443468103844e+00 -1.793963210708607647e+00 -4.450831908206644982e-01 2.889758212656968084e+00 -5.700933221796615769e-01 3.512590007240349449e-02 1.581659491822474672e+00 -4.016634254850043995e+00 1.325899497932773397e+00 3.740184077890568171e-01 -2.368897406320490617e+00 -7.187154384824377962e-01 8.572536873531066970e-01 3.679125514969178723e-01 1.806242800421954398e+00 3.607222038017032339e+00 4.162884785400811971e+00 -5.581716300559500521e-01 3.439321274396706762e+00 7.804018648477131781e-02 -2.293703945491208707e+00 5.079578783211828430e+00 3.376244909547545969e+00 -3.845635311664269973e-01 2.356757170410004765e+00 1.347391865255178400e+00 -2.317222342272181046e-01 1.400688781311691056e+00 -1.034819742776282636e+00 -2.736969366226585265e+00 -2.449086521005097605e+00 -1.417369071559661853e+00 -3.032081639914569471e-01 2.043493421123552256e+00 -3.872210750356710030e+00 -3.270048570016112155e+00 -1.392493646417989117e+00 2.691789937741885463e+00 -2.067413938472189572e-01 -1.125516956949676572e+00 -2.057248824173469881e+00 1.206212064778250825e+00 -5.173265676388296708e-01 -8.064060043704912584e-02 -2.261091041856373440e+00 6.587124163401349541e+00 1.643644680399787728e+00 1.670925115637327929e+00 -8.835540179845482456e+00 -1.634539889132429424e+00 2.894239645837529906e+00 -7.645145028802275977e-01 -3.919189436982406516e-01 -2.416556406898899390e+00 -2.347024515698760361e+00 4.481710859726179552e-01 -9.599826368746117167e-01 1.757947708868863756e+00 -1.373072045752855505e-02 -5.394293663242462955e+00 -8.013183050143836139e-01 -2.594736956028417252e-01 -7.990428785285561553e-01 3.200766590063909289e-01 1.073946279698344108e+00 2.524872364051706786e+00 1.524623677239758113e+00 5.176806085734041218e+00 1.533309892877859237e+00 2.161120886254973339e+00 -2.406457627067223104e+00 -2.496635478359106930e+00 -6.056658229080968958e+00 1.763509005466428636e+00 -4.547363984376578294e+00 4.842019630105371952e+00 1.114208215870283181e-01 -1.258863633887935762e+00 1.966230736299023341e-01 -1.662141712291696827e+00 3.426230758679257971e+00 -1.932497860034553261e-01 1.093908326292654110e+00 -5.479463005162151568e+00 -1.573659760785182771e+00 4.901653801757667850e+00 -2.255078773727041408e-01 -1.513969024858663692e+00 -3.516759822692004711e+00 8.747572449013731877e-01 -2.205364433111604239e+00 -4.035716984090508275e-01 -9.837195774423583838e-01 -9.093678958576640881e-01 2.607047398982250019e+00 4.762255775918795564e+00 4.759481041157771486e+00 4.860758345714420448e-01 -4.833802897943331178e-01 5.403863824220482392e+00 6.164097954203979768e+00 -1.186640825896761120e+00 -4.085978969724568977e+00 -1.439932046326924286e+00 -8.092274303687823078e+00 -2.178688207166910473e+00 1.326504735666969470e+00 2.367289952491181015e+00 1.040778531955439234e+00 2.617105555380618842e+00 2.999364863703431805e+00 -6.698289931533696340e-02 1.473932317342270704e+00 1.779342374263064075e+00 -9.998866754569153414e-01 -1.671047500157921695e-01 -5.585156436873667252e-02 -1.125621857967328499e+00 -5.253661507784158857e+00 1.015916476551310232e+00 -1.410538678336781704e+00 2.439257192806997931e+00 -8.692489130333093117e-01 -8.605935506356940934e-01 1.152608673199579270e+00 -3.468894619623016151e+00 -1.480825445487472303e+00 1.165644167304827894e+00 -1.188677653989498456e-01 -1.766182438754522854e+00 -1.146910593902527253e+00 -1.938848485367879348e+00 -1.210231213572200426e+00 3.323077062880398724e+00 2.266026531892751272e+00 -1.814628196965318851e+00 1.530029679193544601e+00 -3.808319345738050199e+00 -1.269129021218234454e+00 1.071600404980074250e+00 3.194750208169178651e-01 1.662900187786972461e+00 -2.250908958275386063e+00 -9.689033371404045525e-01 -4.402757417323028416e-02 3.884260483428437549e+00 -7.277873196266112510e-01 2.948294523168643599e-01 -9.483571358595638268e-01 5.924802277878848500e+00 -2.168915957463709798e+00 2.707435615992232147e+00 1.786006674207995859e+00 2.825317620357660875e+00 8.493331462997282255e-01 3.112761321122900604e+00 3.575320815796068530e+00 -1.496781198804701729e+00 4.660587149428651266e+00 -3.189150345021006805e-01 -1.896553834868601462e-01 8.455777927119321191e-01 2.774921423127487685e+00 2.397036590084885788e+00 -1.820403409363585245e+00 -9.568464049792305692e-01 -1.783647943972856753e+00 -3.920767580233254446e+00 -9.599163024075671458e-02 1.746368487714544893e+00 4.572013152421354754e+00 5.769633103944985519e-01 -6.933443046102933938e-01 2.804765248428722768e-01 -1.229428614023137190e+00 1.132427054377145442e-01 -3.168960498667777070e+00 1.463420618308760357e+00 5.734023322217630669e-01 -1.691038857330692924e+00 3.587604519274814052e-01 -3.127761652426419570e+00 -1.021154328344448858e+00 2.927123029547290756e+00 1.198568688668569804e+00 -5.337996269548707096e-01 2.143471804255748570e+00 4.621295547669990178e+00 5.031562399264459806e+00 -8.702393020529032297e-01 2.567725972424452774e+00 3.581742403582512946e-01 -2.590379450030472874e+00 3.655988155708206122e+00 1.946763369993835813e+00 -1.892244665614085386e-01 2.232885009404258769e-01 -7.865077211398522339e-01 -5.199053843227673388e-01 2.699252822394724749e+00 -2.429932829311515441e+00 4.036535109184057113e+00 -1.401673513903862967e+00 2.393415962313877543e+00 -1.984231545239785843e+00 1.187860557337299561e+00 -8.545612279000461831e-01 1.613255781183303039e+00 1.519542662752422668e+00 3.031775678613084946e+00 1.718210277785183537e+00 -5.134298033654736138e+00 -2.238707015883928619e+00 1.074137055568681332e+00 -3.236232390002330428e-01 2.567428238653764794e+00 -6.108530239647712357e+00 2.205303240851307134e+00 1.731529107482226770e+00 -4.511730034277508850e+00 3.131534489517157738e+00 -2.273391200396710499e+00 -7.220054223595732124e-01 -2.224878593498194945e+00 2.426900469992436804e+00 1.390793118646547200e+00 -1.919719476266686375e-01 -1.581578244955862134e-01 6.468859064633223355e+00 -7.174638253600641447e-01 -1.484352485095673524e+00 -3.312652781361597576e+00 2.562677353839627248e+00 1.929187307330427759e+00 1.150257656274561446e+00 1.512687586937153661e+00 3.128123663781452901e+00 9.443654464496464840e+00 4.560025640051273754e+00 -2.894801174814371159e+00 4.046109383927473657e-01 -2.453192573093082363e+00 -4.602466329222184349e+00 1.612763157776880174e+00 3.158655002124846511e+00 4.718517707985457221e+00 2.898000655852748686e+00 3.225806565821505600e+00 4.872127764833436459e+00 -2.113447487497671418e+00 -1.335907774925690461e+00 1.769053332781725940e+00 5.714950877390662098e-01 -3.783928830692678824e-01 -1.663704428922302136e-01 -2.340454318137310530e+00 -2.180507519914222758e+00 2.394787903074146129e+00 -3.580219281943863852e+00 -6.149513627426343998e-01 1.443622608109700112e+00 1.357658281026826952e+00 -7.818956759079005447e-01 4.140945046091363047e+00 1.993181041863365532e+00 -1.514618485570889517e+00 -1.913427472090283077e+00 -4.344586717711108825e+00 -6.244869166692418538e+00 5.538619465807591985e-02 -1.671008933607314395e+00 1.031356980752426766e+00 5.241482191102390109e-01 9.414665788177360994e-01 6.415432564966669915e-01 1.735696351830508188e+00 5.853301949935716397e-01 5.833329618927912463e+00 4.068139626075681470e+00 -4.033213757845762082e+00 1.904311882188754579e+00 -9.136338705755000511e-01 1.915451444666151082e-01 4.204976832954233856e+00 -2.608926361327834620e+00 2.511910403502949141e+00 3.196748983931983368e+00 -1.700975143429143577e+00 5.587066766680412577e+00 -1.407763429355084250e+00 3.767993646202439706e+00 2.969584287545191881e+00 -8.189689296756323955e-01 2.375864068022183195e-01 -2.346375054986534536e+00 -3.583306148654467727e+00 7.727539121740266914e+00 -4.384686160149822598e+00 -1.123377798942661654e+00 3.431976660499063136e+00 4.776801536145822702e-01 3.547349782192321666e+00 -2.151489018795982588e-01 4.826614092910140319e-01 -1.191654477475702967e+00 3.337672702512878842e-01 7.573632359562948446e-01 3.030221189513275792e+00 -5.520498329228934464e-01 3.274350540181181657e+00 -1.804035251065195800e-01 2.249320530611042201e+00 3.494132056119722218e+00 -2.027804548336525237e+00 1.303657396866563234e-01 1.699472590617485013e+00 3.006633887161885621e+00 -8.650513296652165840e-01 5.180228224324590069e-01 -5.445920904768019044e-01 4.540445145197639087e-01 1.382919371674571907e-01 -3.752196272853037806e-01 2.037559828757459446e+00 8.197279193915830708e-01 -2.111077958628362783e+00 -2.341077553595123373e+00 -1.052275477801796200e+00 3.004010333279243383e-01 2.598078876193703479e+00 -2.496611309987392779e+00 -3.213596395899252500e-01 2.192824647736827171e+00 2.203033985013576945e+00 -4.586166562273539249e+00 5.199326380185297358e-01 2.851761932778036357e+00 5.229842806129124000e+00 -3.646390226813749913e-01 -8.998270454581064337e-01 2.639762632531362563e+00 -1.276477748881276408e+00 2.880689931057517916e-01 5.707104384114448870e+00 2.167259652670297410e+00 2.114791660341502677e+00 -1.562438437220498910e+00 -8.928182176610832688e-01 -8.605793581450704721e+00 -1.159641155147641545e+00 1.585382963728435346e+00 -5.063762383697459901e-01 2.857483152005451998e+00 -3.364644605345562312e+00 -2.319182037263704199e+00 7.769308752930612072e-02 2.491499956480246247e+00 -3.929057331731113378e-01 -1.809176943592153641e+00 1.131935973632746562e+00 2.881877780816221257e+00 -9.483401665772965838e-01 4.076762078350112395e-01 5.847604384859339532e-01 -1.399704048719519589e+00 -1.057896423997633395e+00 1.116278468306880045e+00 -3.496216192514537635e+00 2.502499650934106867e+00 -3.382649013831047213e+00 1.353430358638923581e+00 -1.918230807413246586e+00 1.132103095352044453e-01 5.459326637759097656e-01 -1.157043312298737581e+00 8.609000261578529933e-01 1.746536123654517381e+00 7.291597746075544062e-02 -2.288342166515452192e+00 3.277873980244659258e+00 -5.771047210800585026e-01 -1.002396072349760053e-01 -3.343010313116921983e-01 1.748472678715675910e+00 1.122570986703957940e+00 5.825050666064223170e-01 -6.207384022164200710e-01 2.588967400057573531e-01 3.037638308526061426e+00 -1.034195478877119878e-01 -7.455063356376037120e-01 4.580636633137135094e-01 5.641874977300054272e-02 -3.716992725458745372e+00 -1.845379107536836871e+00 -1.201608761297770167e+00 -7.707016060389789702e-01 -3.218121537837169033e+00 -4.772897058562345585e+00 1.456376823505853180e+00 -4.637379856155910751e+00 -3.523813901908407598e+00 3.973034512278216912e+00 -3.370114370663018555e+00 8.441950533174937821e-01 6.306779279051215603e+00 1.359596378750009382e+00 1.178270855973639453e+00 -4.453043057108128089e-01 -1.609716400278907514e-02 -3.725768929714929456e+00 4.519315817671615831e-01 -4.520560231704542908e-01 7.283807302852880472e-01 -5.731040842304003791e-01 2.423880451969552041e+00 7.014890972999361374e+00 4.525872131274848442e-01 1.944062683009979003e-02 -3.117471582503731575e+00 6.412599209048723825e-01 3.065883421749457494e+00 1.442689811805679456e+00 -6.835612562729224129e-01 -4.182304329183247127e+00 2.422520338284803287e+00 -2.216995076333399872e+00 -3.791040502624654529e+00 3.584236373855114732e-01 -3.862208644011889680e-01 -9.960660158434241351e-01 -1.007287339408108107e+00 1.116851824359240908e+00 -3.029058022346961532e-01 4.097362787022477804e+00 -3.969322867447775849e+00 -1.042167441997974731e+00 5.010194473345347177e+00 4.301679116167512973e+00 3.035993316587493496e+00 -2.441110958339519410e+00 1.789014865155360789e+00 2.364968246144624420e+00 -6.685861217824667913e-01 9.061887265359400701e+00 -1.028615207536656584e+01 -5.942118144880825792e-01 9.463922986612934019e-02 -1.594119572992663381e+00 -1.919181601440883567e+00 -2.535127981189185586e+00 -4.213339089567234019e-01 -2.715912543815704794e+00 1.122998304084686483e+00 5.062443921887367360e+00 3.052348105148338764e+00 -1.345617289706570574e+00 1.578802995974164958e+00 -2.538209191472366566e+00 -3.671190575736906769e+00 4.023761353402263152e-01 6.351622921435297053e-01 -1.909481856852824455e+00 7.505287289680163676e-01 -7.797939531660080803e+00 -1.541265400937121610e+00 -1.283841903164561149e+00 1.182565112828587672e+00 3.646384570386327795e+00 -7.697348711704241619e-01 -2.953060834603024709e+00 3.930671984649869999e-01 -4.409585239442534998e+00 3.703366906018868754e+00 -1.455401861106502270e+00 -1.183300448393499016e+00 7.189612359649747431e-01 2.431619473124739361e+00 -9.344459239451933241e-01 -1.131795077167861541e+00 -1.544192859238548987e+00 -4.677765205289793116e+00 2.889658968066739053e+00 -2.010183748474412724e+00 1.770329114275813742e+00 4.864172770994849015e-01 -8.890258401847040970e-01 -7.617531378567489186e-01 4.663300177708702421e+00 -6.124310643714848013e+00 3.916968003667429699e+00 2.109333207878890531e-02 -2.627703129266814930e+00 -3.586612073372521081e+00 3.921130620029637637e+00 6.064970606288516697e-01 -2.642508056713924192e-01 2.133456842394059638e+00 1.242958788417508065e-01 -3.017293681749727785e+00 -2.036171947156272921e+00 -1.251157008635258805e+00 2.941589599790405796e+00 -1.513026458361822479e+00 6.280171958676941113e-01 3.533856117465859370e+00 -2.000784308760415353e+00 -1.196958149515211067e+00 4.386590319308470987e-01 7.405590185257063807e-01 2.667702298673949812e+00 2.305814356602558401e+00 4.587709738518503499e+00 4.872971086740047753e-01 3.889647459217257519e-01 -2.372033123995196946e-01 -9.477092178093621255e-01 4.007826683132699408e+00 -3.095359065047562197e+00 1.374487181049804052e+00 2.136863554364366369e+00 -2.346265525982809963e-01 -1.195443769628033337e+00 -1.765833797137033478e+00 -3.485042691472606702e+00 -1.436995846274025990e+00 -2.598422889825120041e+00 -1.972919718836343428e+00 -2.655016474627540202e+00 -5.123561105965679374e-01 -4.167141504146502085e-01 -4.860316115934124603e+00 1.572009112419192611e+00 -8.280608654261217838e-01 -4.510376091240856589e+00 -3.101573421902076647e-02 -8.535343292125441295e-01 -2.133361711569228270e+00 3.299085583078644190e-01 2.474701395477079569e+00 -2.813537338919509523e+00 4.548574974065646148e-01 -2.467670456191041417e+00 3.429624615132695897e+00 1.816576579101996769e+00 -2.568032447946611008e+00 5.227942760735873939e+00 5.468817094532528067e+00 -1.863334150837545167e+00 -5.895851139669002094e+00 -5.375243329904508371e+00 3.607639585204939880e+00 1.170307634604255798e+00 -3.361468778458223561e+00 4.322407865787895709e+00 2.063135622458159291e-01 1.103196694340902617e+00 -1.859850305766024281e+00 -8.274772249602653229e-01 -3.772431884846322081e+00 6.415725670751283582e-02 -9.029637915741621779e-01 -1.651099337521830579e+00 -2.237887862349030588e+00 2.733530258353768505e-01 -1.700079371013705654e+00 -1.863927561496222074e+00 -1.185906004552524234e-01 6.581428140986996800e-01 1.032986031850076758e+00 -4.235964285036142307e+00 -3.676176459399412177e+00 8.164034827292386831e-01 1.731214404429271436e+00 -3.363527718039976300e+00 -1.405985768482427511e+00 1.386221182627226822e+00 3.387274428800543524e-02 7.503917920023269517e+00 5.546255642827827570e-01 -2.067215449291730955e+00 9.059097618198810320e-01 -2.441603067525268234e+00 -2.145779112423411128e+00 -2.010306132995006489e+00 9.268203912929266153e+00 7.670784071645971869e-01 3.374660595648600214e+00 -3.734928742594487705e-01 -2.423372916163561153e-01