-7.881335537010406256e+01 4.163010916319175081e+00 -1.941462806923408380e+01 4.163010916319175081e+00 -5.542177356282518730e+01 -1.421398780370150217e+00 -1.941462806923408380e+01 -1.421398780370150217e+00 -9.427379857315905554e+01
-5.274082412625165972e+01 2.314807782104719180e+01 -1.368520383862746570e+01 2.314807782104719180e+01 1.062198245844062328e+01 -1.755812707272730222e+01 -1.368520383862746570e+01 -1.755812707272730222e+01 -4.211665919098000188e+01
4.431789405348424538e+01 -9.995237348744813843e+00 1.084257731196104402e+01 -9.995237348744813843e+00 -4.146356153622546259e+01 1.984937282822545512e+01 1.084257731196104402e+01 1.984937282822545512e+01 -5.374637395875721069e+01
-2.922202163098608807e+01 -2.047052935756888914e+01 -3.809679132923165668e+01 -2.047052935756888914e+01 -3.746319494128044170e+01 -9.102347598366208103e+00 -3.809679132923165668e+01 -9.102347598366208103e+00 -7.809053867874075650e+01
-2.459945923741663165e+01 -3.990904275477670904e+00 -1.579792844418633457e+01 -3.990904275477670904e+00 -9.399967074658486865e+01 2.093657025911695513e+01 -1.579792844418633457e+01 2.093657025911695513e+01 -2.032445583587297477e+01
1.710060477162560844e+01 2.424550273251986354e+01 -9.205886579927465618e+00 2.424550273251986354e+01 -6.417013626737956500e+00 2.459802591813650352e+01 -9.205886579927465618e+00 2.459802591813650352e+01 -6.468858751030971632e+01
-3.760176031191352308e+01 4.518383101989298822e+00 1.605390974291532658e+01 4.518383101989298822e+00 -2.715527884805923264e+01 2.340566177924764091e+01 1.605390974291532658e+01 2.340566177924764091e+01 -3.712270454404426800e+01
1.529504352961522429e+01 -3.434009462638663734e+01 7.081657834394195383e+00 -3.434009462638663734e+01 -2.217882449041454507e+01 -2.001236167058094484e+00 7.081657834394195383e+00 -2.001236167058094484e+00 -4.741847703029407768e+01
-2.595083236062534215e+00 1.335837034070472207e+01 4.897371272700436151e+00 1.335837034070472207e+01 3.563990020620892984e+00 8.184156942244770860e+00 4.897371272700436151e+00 8.184156942244770860e+00 -4.549548466085492038e+01
-1.434936287604574012e+01 1.303799795040433906e+01 -3.268161326140067757e+01 1.303799795040433906e+01 -2.076503782666520692e+01 -4.956384247083331474e+00 -3.268161326140067757e+01 -4.956384247083331474e+00 -1.782681703723440592e+01
-7.818499495640052999e+01 -7.755130158802977292e+00 -2.868256586162950939e+01 -7.755130158802977292e+00 2.300849792264112281e+01 -1.531341786305264074e+00 -2.868256586162950939e+01 -1.531341786305264074e+00 -4.779853422385061634e+01
-3.097969456207838590e+01 2.634145632529623970e+00 1.310336967853185541e+01 2.634145632529623970e+00 -3.989998936210560743e+01 -3.447348117543521795e+01 1.310336967853185541e+01 -3.447348117543521795e+01 -3.883511588519921531e+01
5.859676022306871124e-01 6.491088347772078215e+00 -3.194825461894077279e+01 6.491088347772078215e+00 -8.624439648599769725e+01 -7.522015041080463982e-02 -3.194825461894077279e+01 -7.522015041080463982e-02 -4.667346108741712385e+01
-5.798400178592017085e+01 6.380268263543157126e+00 -2.253880201333585021e+01 6.380268263543157126e+00 -2.420882418487354926e+01 4.496321130818304113e+01 -2.253880201333585021e+01 4.496321130818304113e+01 5.415412781042720525e+01
-6.716908552314340852e+01 -2.759838679707611675e+01 -5.184409073184502859e+01 -2.759838679707611675e+01 -6.455956723472571923e+01 -2.075244647075364046e+00 -5.184409073184502859e+01 -2.075244647075364046e+00 -8.731708175220077806e+01
-8.272947754478138904e+01 1.180782697952651361e+01 -1.087945741162385893e+01 1.180782697952651361e+01 -8.530425635607461743e+01 2.537345236253787917e+01 -1.087945741162385893e+01 2.537345236253787917e+01 -3.153483189858315683e+01
-7.002313266771885480e+01 1.123751893483978748e+01 2.905947124201008336e+01 1.123751893483978748e+01 -4.740601117129192232e+01 9.104541303663630458e+00 2.905947124201008336e+01 9.104541303663630458e+00 -5.183884771054944451e+01
-1.756282197990718785e+01 -1.320974148557700012e+01 1.048323601663957838e+01 -1.320974148557700012e+01 -3.246636760468962990e+01 3.313800388452305867e+01 1.048323601663957838e+01 3.313800388452305867e+01 -7.098011128311181039e+01
-3.156880149294168447e+01 -7.810715544785844955e+00 -4.214989574694398833e+00 -7.810715544785844955e+00 -7.999525860474277295e+01 -3.378588496918796835e+01 -4.214989574694398833e+00 -3.378588496918796835e+01 -9.071709278880615557e+01
-3.314579466474952341e+01 8.766573779965760593e+00 1.851991799156152751e+01 8.766573779965760593e+00 -4.530493031724098785e+00 -1.083427562038877134e+01 1.851991799156152751e+01 -1.083427562038877134e+01 -3.399366512241959271e+01
3.354283537711721053e+00 1.423790674555020708e+01 2.129515132467852290e+00 1.423790674555020708e+01 -2.999578441538024620e+01 -2.748880479491423667e+00 2.129515132467852290e+00 -2.748880479491423667e+00 -4.772234258720624211e+01
-9.225960152233845690e+00 5.518746079410081329e+00 -1.635605035540160124e+00 5.518746079410081329e+00 -5.033363845654405644e+00 1.917675621971168809e+01 -1.635605035540160124e+00 1.917675621971168809e+01 -5.739987747737234969e+01
-6.613741989721627590e+01 4.059202684258517024e+01 -9.394454079066958396e-01 4.059202684258517024e+01 -1.422541180700008345e+00 -1.134790833807914368e+01 -9.394454079066958396e-01 -1.134790833807914368e+01 -3.059450108331482809e+01
-6.376313584911715182e+00 1.477539995949182838e+01 -1.501030795208375324e+01 1.477539995949182838e+01 -1.509801323720766497e+01 1.681461803902520913e+01 -1.501030795208375324e+01 1.681461803902520913e+01 -2.026148556709818749e+01
-2.997328854843237167e+01 2.012343086510529844e+01 2.858539926454496793e+01 2.012343086510529844e+01 -4.827701449274050560e+01 -5.501406898207054086e-01 2.858539926454496793e+01 -5.501406898207054086e-01 -1.473002334482268161e+01
2.306929900616678353e+01 -1.953562849257691747e+00 -2.932916563642148233e+01 -1.953562849257691747e+00 -2.035391919700471419e+01 -1.881888715363358244e+01 -2.932916563642148233e+01 -1.881888715363358244e+01 2.148795609474168344e+01
-6.544160204108267465e+01 -2.018147424155868919e+01 -2.385483200649529678e+01 -2.018147424155868919e+01 -1.685264996758890632e+01 -2.253099929066080165e+01 -2.385483200649529678e+01 -2.253099929066080165e+01 -8.519820304703483771e+01
-1.178880598131973585e+02 6.998514114832983246e+00 2.439594198996947583e+01 6.998514114832983246e+00 -3.967887282850934838e+00 1.412599388584713900e+01 2.439594198996947583e+01 1.412599388584713900e+01 6.169794686519142424e+00
-1.889336722747964492e+00 2.669191111503205605e+01 -1.075228805249463626e+01 2.669191111503205605e+01 -5.428668936848526272e+01 -1.018975000301601774e+01 -1.075228805249463626e+01 -1.018975000301601774e+01 -8.802940005724911998e+01
-3.837115062618103423e+01 5.920498004214584942e-01 -9.759360152093886853e+00 5.920498004214584942e-01 -1.668009416759129948e+01 1.786688497712768608e+01 -9.759360152093886853e+00 1.786688497712768608e+01 -4.918715708247725615e+01
-1.287451475087747212e+02 2.626212420043400608e-01 -3.408149122816960386e+01 2.626212420043400608e-01 -2.917788314423396301e+01 3.952422119067788486e+01 -3.408149122816960386e+01 3.952422119067788486e+01 -8.062764699041377980e+01
-6.394460414751513611e+01 1.573846883402746499e+01 7.599350392574629076e+00 1.573846883402746499e+01 -1.026424744972446348e+02 -2.429030068176111712e+01 7.599350392574629076e+00 -2.429030068176111712e+01 -2.495396976402636469e+01
-1.031328205356206666e+02 -4.745663304050090403e+01 1.097885186163250815e+01 -4.745663304050090403e+01 -4.771772614032801130e+01 -3.682425789882062706e+00 1.097885186163250815e+01 -3.682425789882062706e+00 -6.291595094165418089e+01
-6.610048830885905602e+01 -8.470263322322228561e+00 -1.507282558478202361e+01 -8.470263322322228561e+00 -8.541397929650729282e+01 -9.497888647754686442e-01 -1.507282558478202361e+01 -9.497888647754686442e-01 -8.912684810657583512e+01
1.223565213733331980e+01 -2.824721848116880452e+01 2.048647288266361244e+01 -2.824721848116880452e+01 -2.193071906306735741e+01 3.204322432963695633e+01 2.048647288266361244e+01 3.204322432963695633e+01 -3.147335582249716879e+01
-1.314625616300772890e+02 -9.705958906948632947e-01 -2.448766974230309401e+01 -9.705958906948632947e-01 1.157667614565961856e+01 -8.427190549674165254e+00 -2.448766974230309401e+01 -8.427190549674165254e+00 -4.191604684723481711e+01
-9.967556996696251304e+01 1.320383229277756953e+01 -3.094006429957462601e+01 1.320383229277756953e+01 -8.339494622703770688e+01 6.738559250385637078e+00 -3.094006429957462601e+01 6.738559250385637078e+00 -7.626447341692895066e+01
-6.460359044954593344e+01 4.166742085578249544e+01 2.088978355494785077e+01 4.166742085578249544e+01 -3.173399385400225725e+01 1.196683155949059874e+01 2.088978355494785077e+01 1.196683155949059874e+01 -8.978416356140793653e+01
-7.548265675432374167e+01 3.367480728310763283e+01 -8.005925934714781533e+00 3.367480728310763283e+01 -1.113440747690707582e+02 -3.775345260942923176e+01 -8.005925934714781533e+00 -3.775345260942923176e+01 -8.888210285478689343e+01
-1.359860274200019035e+02 1.305144733385778721e+01 2.063970811204946187e+01 1.305144733385778721e+01 -4.220775837908689709e+01 -2.117757651116361117e+01 2.063970811204946187e+01 -2.117757651116361117e+01 -2.837709399159710699e+01
-7.603353736234515736e+01 -4.179840619646857824e+00 5.919211839257236818e+00 -4.179840619646857824e+00 -1.052600962732698235e+02 1.562407128159602010e+01 5.919211839257236818e+00 1.562407128159602010e+01 -1.278515696966218513e+02
-2.870094796772069756e+01 -6.644797048993602573e+01 2.089712853345581678e+01 -6.644797048993602573e+01 -5.449127391652123720e+01 -4.234620433458109545e+01 2.089712853345581678e+01 -4.234620433458109545e+01 -2.998355630001881877e+01
1.957898687145558014e+01 -1.482266001543639256e+01 2.862474649012536076e+01 -1.482266001543639256e+01 -7.132956480540502753e+01 -2.028768449733955492e+01 2.862474649012536076e+01 -2.028768449733955492e+01 -7.955275055034134368e+01
-2.698342737632507493e+01 1.568211366574812793e+01 -1.962444182290560235e+01 1.568211366574812793e+01 -5.751196623136478792e+01 -4.040881148076230112e+00 -1.962444182290560235e+01 -4.040881148076230112e+00 -6.630958184157243807e+01
-4.418022842931964789e+01 -1.809400484974226586e+01 -3.180736945394052384e+00 -1.809400484974226586e+01 -1.840584168922022812e+01 9.136984385986304247e+00 -3.180736945394052384e+00 9.136984385986304247e+00 -5.713818126726532398e+01
1.382709209445245779e+00 3.670057261681921368e+00 -5.305897045179949423e+00 3.670057261681921368e+00 -3.361471604941290536e+01 1.369107713060640208e+01 -5.305897045179949423e+00 1.369107713060640208e+01 -1.176865267824360650e+01
-7.753226907183638161e+01 3.600811773587421527e+01 2.335783776144734247e+01 3.600811773587421527e+01 -7.946019188812351786e+01 -7.778715146105747102e+00 2.335783776144734247e+01 -7.778715146105747102e+00 -2.917475942470721861e+01
-1.032332527431727129e+02 -1.279705960925960895e+01 -2.764290695021444222e+01 -1.279705960925960895e+01 -3.551339250042642703e+01 -4.584315143617523347e-01 -2.764290695021444222e+01 -4.584315143617523347e-01 8.161522723331835039e+00
-3.246043834607186795e+01 3.140745325784952158e+01 1.674527558304939490e+01 3.140745325784952158e+01 -1.986830612149000785e+01 -2.195936290452338469e+01 1.674527558304939490e+01 -2.195936290452338469e+01 -2.841528391493289263e+01
-2.468028292047385364e+01 -8.116369901642568607e-02 8.586863582350611424e+00 -8.116369901642568607e-02 -5.092961624378330043e+01 -1.247063369464599347e+01 8.586863582350611424e+00 -1.247063369464599347e+01 -5.862294922813116926e+01
-4.432856740943337570e+01 3.053705742836040216e+01 4.225961673745764813e+01 3.053705742836040216e+01 -7.433883560380185429e+01 1.376785722228365572e+01 4.225961673745764813e+01 1.376785722228365572e+01 -6.588537131475287367e+01
-4.810525418264364639e+00 5.360020453614524172e+01 -4.055657390919548355e+00 5.360020453614524172e+01 -9.875197469044107379e+01 -4.826688219811059355e+01 -4.055657390919548355e+00 -4.826688219811059355e+01 -1.317784311819404586e+01
4.306829299999847649e+01 4.231761019159561599e+00 1.121458730106102664e+01 4.231761019159561599e+00 8.430621517056469116e+00 6.610700266667064895e+00 1.121458730106102664e+01 6.610700266667064895e+00 -5.020346911023781944e-01
-8.607872472609881243e+01 2.012578290323610020e+01 2.857487361960367878e+01 2.012578290323610020e+01 -6.187741232838185823e+01 2.393235134042036449e+01 2.857487361960367878e+01 2.393235134042036449e+01 2.790591309850048329e+00
-6.577240159665677766e+01 -4.809200090007749395e+00 -2.163936845060844405e+01 -4.809200090007749395e+00 -9.633279063151667287e+01 -1.970421202361985591e+00 -2.163936845060844405e+01 -1.970421202361985591e+00 -1.504463142631326207e+02
-3.983050815991495597e+01 -1.207764563608070851e+01 8.106255969961232211e+00 -1.207764563608070851e+01 2.565189235137550128e+01 -4.022504375109643426e+00 8.106255969961232211e+00 -4.022504375109643426e+00 -5.640047502384805256e+01
-2.278653115098028792e+01 1.090571801685148223e+01 4.205625055191568151e+00 1.090571801685148223e+01 -4.006177763907199818e+01 -1.348363780441965964e+01 4.205625055191568151e+00 -1.348363780441965964e+01 -1.947509881243102825e+01
-8.267497119994654042e+01 3.404812007991746103e+00 -7.670486501289124348e+00 3.404812007991746103e+00 -2.635107092725818489e+01 1.577611013546140306e+01 -7.670486501289124348e+00 1.577611013546140306e+01 -5.965329905613275230e+01
-5.474701011735498213e+01 2.447454404786323678e+01 -8.074390842008959623e+00 2.447454404786323678e+01 -1.391598506301095561e+01 -2.614015048788881135e+00 -8.074390842008959623e+00 -2.614015048788881135e+00 -6.166154031188722229e+01
-8.549151586931314739e+01 -7.462584278227653023e+00 1.680000379781996500e+01 -7.462584278227653023e+00 4.924707693993661906e+01 -9.479644357521237907e+00 1.680000379781996500e+01 -9.479644357521237907e+00 -7.922425592188086796e+01
-5.056959235284766407e+01 -6.617777644172069529e+01 -1.523626198995365222e+01 -6.617777644172069529e+01 -3.679376589038204770e+01 -3.817160827639636711e+00 -1.523626198995365222e+01 -3.817160827639636711e+00 -1.080119968042898222e+02
-4.560107142464170238e+01 -4.306240410435314203e+01 1.579135849920436385e+01 -4.306240410435314203e+01 -1.440094513931676445e+01 1.191931744275232496e+01 1.579135849920436385e+01 1.191931744275232496e+01 -5.883166467656995735e+01
-6.147585616453973500e+01 -2.566365233148437852e+01 -4.554223322052560974e+00 -2.566365233148437852e+01 -8.740784077189137236e+01 -5.655467932257500330e+00 -4.554223322052560974e+00 -5.655467932257500330e+00 -6.547674389903171743e+01
-2.736568243149764257e+01 1.516552496604667688e+01 1.994266811911035120e+01 1.516552496604667688e+01 -1.538745550775648141e+01 -1.058986497251557246e+00 1.994266811911035120e+01 -1.058986497251557246e+00 -3.673036430051356405e+01
-7.676565886014124374e+01 -2.659391473379246307e+01 -8.968352201605110707e+00 -2.659391473379246307e+01 5.187321164715924304e+00 9.291357936734625511e+00 -8.968352201605110707e+00 9.291357936734625511e+00 -2.080081036096994396e+01
3.167753694700083056e+00 -3.649226297616682757e+01 -1.572053911583120289e+01 -3.649226297616682757e+01 1.087467177202052859e+01 3.037468723980964924e+01 -1.572053911583120289e+01 3.037468723980964924e+01 -2.337147065782631472e+01
-4.797489964564383058e+01 1.764754288296981954e+01 -3.276601132238015879e+01 1.764754288296981954e+01 -3.645777261833793403e+01 -3.271409399200700108e+01 -3.276601132238015879e+01 -3.271409399200700108e+01 -5.068643216812387919e+01
-2.509313976052103712e+01 6.895404442356003472e+01 1.891404982993656603e+01 6.895404442356003472e+01 -8.209644021531541114e+01 -8.437580247418436485e+00 1.891404982993656603e+01 -8.437580247418436485e+00 -3.132095580005628577e+01
-4.012771199955949442e+01 5.943618382480832629e+00 -5.003201042855796032e+00 5.943618382480832629e+00 -7.645402164850997906e+01 1.247314216278216747e+01 -5.003201042855796032e+00 1.247314216278216747e+01 4.200805743760800404e+00
-2.061380672369320521e+01 -6.310780682267163044e-01 2.473784037865179997e+01 -6.310780682267163044e-01 4.047604543683176104e+01 -1.400323003018104728e+01 2.473784037865179997e+01 -1.400323003018104728e+01 -2.934500225108329374e+01
-4.821086670568815435e+01 2.567237855522553147e+01 -1.332552339917621964e+01 2.567237855522553147e+01 -2.668825129900844573e+01 -4.848859542401496014e+01 -1.332552339917621964e+01 -4.848859542401496014e+01 -1.581780416556851776e+01
-1.083632951042074808e+02 -5.860387445155956954e+01 4.277968797419437408e+01 -5.860387445155956954e+01 -2.983438419376826900e+01 -8.973107301070895048e+00 4.277968797419437408e+01 -8.973107301070895048e+00 -4.859917875628891437e+01
-3.254044916371049645e+00 3.617941207763038847e+00 1.035221442929029223e+01 3.617941207763038847e+00 -3.355457759683508812e+01 3.117202446607113586e+01 1.035221442929029223e+01 3.117202446607113586e+01 -3.227593679043413033e+01
-5.356174173773185032e+01 -9.922440460495488779e+00 1.650536741371326599e+01 -9.922440460495488779e+00 -3.655082831938875643e+01 3.669145468876244820e+01 1.650536741371326599e+01 3.669145468876244820e+01 -1.095157766647420239e+01
-3.322369959382286453e+01 -5.119943845371706992e+00 3.593709013394158092e+01 -5.119943845371706992e+00 -6.595184434609316781e+01 -1.787454961720131408e+01 3.593709013394158092e+01 -1.787454961720131408e+01 2.001770062262030692e+01
-7.014525371983177138e+01 -2.049094797153393444e+01 2.317599691116389593e+01 -2.049094797153393444e+01 -5.278751279237570060e+01 1.323449820045722980e+01 2.317599691116389593e+01 1.323449820045722980e+01 -5.708206856131081253e+01
-9.348226417505156860e+01 -1.849705330862810371e+01 2.880680439131702997e+01 -1.849705330862810371e+01 -1.135066598236541324e+02 2.003684647435235533e+01 2.880680439131702997e+01 2.003684647435235533e+01 -9.569807666508675936e+01
-5.394295946890731130e+01 1.618455014380093981e+00 2.032917555218983807e+01 1.618455014380093981e+00 -5.232046230540576914e+01 -1.554421883931783199e+01 2.032917555218983807e+01 -1.554421883931783199e+01 2.762377177643658044e+01
-3.803317640984381853e+01 1.678972661345319040e+01 -2.028251810904108510e+01 1.678972661345319040e+01 -7.441060863442471884e+01 -1.924279823942544354e+01 -2.028251810904108510e+01 -1.924279823942544354e+01 -1.143005011378560596e+02
-1.108946631393145736e+02 8.785856101708167110e-01 2.206614488099783244e+01 8.785856101708167110e-01 -7.940453312759289872e+01 -2.233367532695835678e+01 2.206614488099783244e+01 -2.233367532695835678e+01 -7.385951189514375415e+01
-4.303251445677378939e+01 1.916394274690430422e+01 1.495758129401784764e+01 1.916394274690430422e+01 -5.853431786606796550e+01 3.212627567743460588e+01 1.495758129401784764e+01 3.212627567743460588e+01 -7.068502210310249723e+01
-1.689079055620580405e+01 -5.612113091465318337e-01 1.467766387323917066e+01 -5.612113091465318337e-01 -4.041250313314547782e+01 1.559034573675432078e+01 1.467766387323917066e+01 1.559034573675432078e+01 -2.219749602471702588e+01
-4.589958115155849327e+01 -1.706088466747577570e+01 -2.853035466408856191e+00 -1.706088466747577570e+01 -3.633371931818064837e+01 2.808196298329202634e+01 -2.853035466408856191e+00 2.808196298329202634e+01 -1.773623857749260679e+01
-4.993328946753110387e+01 -3.339376927182778587e+01 -9.078508858206232546e+00 -3.339376927182778587e+01 -6.909071430994018215e+01 -5.970574595367234139e+01 -9.078508858206232546e+00 -5.970574595367234139e+01 -9.871602323733512208e+01
-1.000449005933912616e+02 1.266884408597470824e+01 5.677016871539616538e+00 1.266884408597470824e+01 -1.028345482945966722e+02 1.641786095674940071e+01 5.677016871539616538e+00 1.641786095674940071e+01 -4.382577135466605256e+01
-4.329654133226161861e+01 -6.251223381362228437e+00 -3.003275187576126015e+01 -6.251223381362228437e+00 -7.831242626360933379e+00 2.685715645687772835e+01 -3.003275187576126015e+01 2.685715645687772835e+01 -8.237446371147031243e+01
-4.387638749735178578e+01 -4.136413011871901091e+01 -4.111636657177860421e+00 -4.136413011871901091e+01 -7.894688344908162492e+01 -3.539341053815435512e+00 -4.111636657177860421e+00 -3.539341053815435512e+00 -8.533937712169871759e+01
-8.196260979482119069e+01 -1.019483630140304697e+01 -2.735229203086671390e+00 -1.019483630140304697e+01 -5.779728133326638329e+01 -1.515991875725428351e+01 -2.735229203086671390e+00 -1.515991875725428351e+01 -1.702558764066941066e+01
-9.859126631948208797e+01 2.133438929835226006e+01 -1.983786755019912462e+01 2.133438929835226006e+01 -3.056034175609092429e+01 -1.357292468258278539e+01 -1.983786755019912462e+01 -1.357292468258278539e+01 -8.910907717124162275e+01
-9.682234414370822151e+01 -2.276481925615342305e+01 3.538794604304347224e+00 -2.276481925615342305e+01 -5.545382528079390738e+01 9.480531779232443057e+00 3.538794604304347224e+00 9.480531779232443057e+00 -1.173068897388750997e+02
-4.928464519649387654e+01 2.002040037916701110e+01 3.308904216608487214e+00 2.002040037916701110e+01 1.717460961583802970e+01 -1.354232124456069641e+01 3.308904216608487214e+00 -1.354232124456069641e+01 -2.148614239765131995e+00
-8.456500190197655797e+01 -2.529400790027105472e+01 3.468607682292577010e+01 -2.529400790027105472e+01 -2.455958911344817608e+01 -2.831373311339878462e+00 3.468607682292577010e+01 -2.831373311339878462e+00 -1.138137538192842442e+02
-1.059370181059090328e+02 -2.045981778225870329e+01 -2.343807363965791524e+01 -2.045981778225870329e+01 -5.311233350442159917e+01 4.788815166238952203e-01 -2.343807363965791524e+01 4.788815166238952203e-01 -6.898426317184531342e+01
-4.027613185804429463e+01 6.539773167910139762e+01 1.959454299577157599e+01 6.539773167910139762e+01 -3.649723045315836600e+01 -1.185569500967231527e+01 1.959454299577157599e+01 -1.185569500967231527e+01 -3.032298001001706922e+01
-6.853018964119290501e+01 1.887349522336343810e+01 -1.652648841224635134e+01 1.887349522336343810e+01 -5.280752866139795998e+01 1.121756230675169608e+00 -1.652648841224635134e+01 1.121756230675169608e+00 -5.014635842641498442e+01
-5.969115038739773382e+01 -6.820152979846489938e-01 1.307432630411622942e-01 -6.820152979846489938e-01 -1.132029396737200244e+02 8.169143974384257945e+01 1.307432630411622942e-01 8.169143974384257945e+01 -8.707558781938513448e+01
-8.031417570756551072e+01 1.233881807959056998e+00 -7.836888957198270944e+00 1.233881807959056998e+00 -6.973939432135541949e+01 -2.591375664924619215e+01 -7.836888957198270944e+00 -2.591375664924619215e+01 2.822833223768748212e+01
-5.797572616884891517e+01 -1.863925962513392420e+01 2.843269249969807433e+01 -1.863925962513392420e+01 -8.663827792064078892e+01 -1.733427031939237395e+01 2.843269249969807433e+01 -1.733427031939237395e+01 -5.850224690360111879e+01
-9.000980544091078173e+01 -2.797022237475862383e+01 -1.740371984325438959e+01 -2.797022237475862383e+01 -1.269785225052632995e+02 -8.824259797649787629e+00 -1.740371984325438959e+01 -8.824259797649787629e+00 -1.121562121617951107e+02
-3.284463305340529615e+01 -1.573370654454022599e+01 -8.422741139795977716e+00 -1.573370654454022599e+01 -7.177925230316402860e+01 -5.621028328705907740e+00 -8.422741139795977716e+00 -5.621028328705907740e+00 -2.218026223306135236e+01
-1.318782694367344561e+02 -6.549624588925171054e+01 -1.255160211363223510e+01 -6.549624588925171054e+01 -5.779452982746443013e+01 -3.685940359989601234e+01 -1.255160211363223510e+01 -3.685940359989601234e+01 -4.020924492435545261e+01
-1.896615225143520433e+01 -2.052627619476457355e+01 -4.044131665107228457e+01 -2.052627619476457355e+01 2.909757152663589963e+01 5.590028972114269123e+01 -4.044131665107228457e+01 5.590028972114269123e+01 1.634221710113952497e+01
-1.016297728668112796e+02 1.132602681238806674e+01 2.692625223562586001e+01 1.132602681238806674e+01 -1.280304173625225985e+02 1.248424642475168156e+01 2.692625223562586001e+01 1.248424642475168156e+01 -6.579964243594548634e+01
-6.230511189987182519e+01 -1.336393711942901597e+01 6.084800914514187475e+00 -1.336393711942901597e+01 -6.776891981675214538e+01 -6.780515021893471328e+00 6.084800914514187475e+00 -6.780515021893471328e+00 -1.155546939193475708e+02
-5.017744562194871349e+01 -2.243186932740814044e+01 4.173578094218106571e+01 -2.243186932740814044e+01 -8.732997226531163903e+01 1.635023555665640416e+01 4.173578094218106571e+01 1.635023555665640416e+01 -2.332519804392277862e+01
-4.964492113153863073e+01 6.740841920507302021e+00 -9.690213848294330079e-01 6.740841920507302021e+00 -5.161734946098390253e+01 1.507475739909298174e+00 -9.690213848294330079e-01 1.507475739909298174e+00 -6.392038496381034207e+01
-4.723961926326921912e+01 1.951480089136394369e+01 1.424052242532531309e+01 1.951480089136394369e+01 -1.119702282248475882e+02 -3.181651310855156822e+01 1.424052242532531309e+01 -3.181651310855156822e+01 -7.330577237714747696e+01
-1.067341611519502322e+02 2.023320288269563605e+01 -1.551072751488875134e+01 2.023320288269563605e+01 -1.108880753800312249e+02 2.274153443567721666e+01 -1.551072751488875134e+01 2.274153443567721666e+01 -1.043216323447468596e+02
-7.620626850784958606e+01 -3.591495038279312269e+01 1.180367270459838025e+01 -3.591495038279312269e+01 -7.587534262816747344e+01 2.214497031091745072e+01 1.180367270459838025e+01 2.214497031091745072e+01 -6.322678577151122425e+01
-3.442478433497756729e+00 -1.231985877385291239e+01 -5.816758348079771679e+01 -1.231985877385291239e+01 -7.110699812355548488e+01 -3.088920782003337639e-01 -5.816758348079771679e+01 -3.088920782003337639e-01 -5.047538769188827956e+01
-7.810709778486456401e+01 -9.464400514566630562e+00 -3.603315476061732880e+01 -9.464400514566630562e+00 8.057627671658281088e+00 8.608236230172748193e+00 -3.603315476061732880e+01 8.608236230172748193e+00 -4.327055930361751734e+01
-5.164996227282681929e+01 2.662290229027573929e+01 2.201098101469224488e+01 2.662290229027573929e+01 -5.182435003269009854e+01 2.107515062370122649e+00 2.201098101469224488e+01 2.107515062370122649e+00 -2.871934320330829138e+01
-4.357768822288174704e+01 -1.662400907466571098e+01 2.769286397158097301e+01 -1.662400907466571098e+01 -5.812605821160240538e+01 4.196027133421837618e+01 2.769286397158097301e+01 4.196027133421837618e+01 -4.734742675376227794e+01
-1.595365660370084626e+01 2.990397289941854453e+01 -1.803684154062737077e+00 2.990397289941854453e+01 -2.112626766446314619e+01 2.994075885357848854e+00 -1.803684154062737077e+00 2.994075885357848854e+00 -5.711124268570147677e+01
-7.409066159881669478e+01 -3.261137357485377919e+01 -1.065659863332572321e+01 -3.261137357485377919e+01 -6.989370854485355267e+01 -3.191672526035382162e+01 -1.065659863332572321e+01 -3.191672526035382162e+01 -6.336832409305547742e+01
-1.207641180158049679e+02 2.296256251958364558e+01 -2.263352021130322456e+01 2.296256251958364558e+01 -1.117761159686004362e+02 -1.990733043129207758e+01 -2.263352021130322456e+01 -1.990733043129207758e+01 -5.826540328061396679e+01
-5.613545052145686043e+01 -1.061569174062787368e+01 -5.494143305201420446e+01 -1.061569174062787368e+01 -7.480921096575707452e+01 -2.065520620183038147e+01 -5.494143305201420446e+01 -2.065520620183038147e+01 -6.125663325074489052e+01
-2.815422952918788368e+01 -1.848151149239328106e+01 5.668197943518609172e+00 -1.848151149239328106e+01 3.726494038703051181e+00 9.640784304087897105e-01 5.668197943518609172e+00 9.640784304087897105e-01 -9.731458298251351380e+01
-8.891139926487623413e+00 7.068128535935576551e+00 1.827553280558170812e+01 7.068128535935576551e+00 -2.920247065603003023e+01 3.732161039795098390e+00 1.827553280558170812e+01 3.732161039795098390e+00 -1.019579063042756815e+02
-9.234349318716363086e+01 -1.732529447497800490e+01 4.008434713957071516e+00 -1.732529447497800490e+01 -9.755140158946100826e+01 -7.729645272067974027e+00 4.008434713957071516e+00 -7.729645272067974027e+00 -3.497487743797393023e+01
-6.349786059478748257e+01 1.245570892521452677e+01 1.471189369687061266e+00 1.245570892521452677e+01 -6.747699458673784534e+01 -2.794460791009937850e+01 1.471189369687061266e+00 -2.794460791009937850e+01 -7.070548052663043848e+01
-7.942794078061908181e+01 2.458677203435611602e+01 1.075175421163707057e+01 2.458677203435611602e+01 -1.940172116330779772e+01 -1.618373328790462296e+01 1.075175421163707057e+01 -1.618373328790462296e+01 -8.908924772710135187e+01
-6.991355573343487606e+01 1.144207339446794869e+01 -3.086491330445486625e-01 1.144207339446794869e+01 -1.950589253891886443e+01 -3.079794253339055032e+01 -3.086491330445486625e-01 -3.079794253339055032e+01 -8.865340978304639918e+01
-1.208500631807147130e+02 -1.850969642722065878e+00 7.158029272101497753e+00 -1.850969642722065878e+00 -1.252263840661071193e+01 2.149909199287136641e+00 7.158029272101497753e+00 2.149909199287136641e+00 -5.773990422603806394e+01
-1.668976495156869433e+01 6.220902519069428926e+00 -5.499175659368776792e+01 6.220902519069428926e+00 -6.586718708764992414e+01 -3.875166861214012215e+01 -5.499175659368776792e+01 -3.875166861214012215e+01 -2.040699360625234604e+01
1.081146196060268849e+01 4.679694595723456985e+01 4.671071362414373596e+00 4.679694595723456985e+01 -9.601718729845083544e+01 5.171993073645142047e+00 4.671071362414373596e+00 5.171993073645142047e+00 -7.132292786902810633e+01
-6.185615770931232049e+01 -6.808352586141259266e+00 1.466019950382885906e+00 -6.808352586141259266e+00 -3.098470802978542693e+01 2.485914291597039494e+01 1.466019950382885906e+00 2.485914291597039494e+01 -2.001849880217588407e+01
-2.904915685394856695e+01 -1.142798434978031530e+01 3.783707578201067179e+00 -1.142798434978031530e+01 -4.752370604980803392e+01 -9.607941476691475913e+00 3.783707578201067179e+00 -9.607941476691475913e+00 1.498781530991053046e+01
-6.515267369304190481e+01 -7.914374685879662863e+00 3.246597385179909878e+01 -7.914374685879662863e+00 -2.190355340788244121e+01 -8.747173164005726420e+00 3.246597385179909878e+01 -8.747173164005726420e+00 -5.767664397041691160e+01