4.998834999999999695e+00 9.113044999999999618e+00 1.540464500000000037e+01 1.443044500000000063e+01 6.897165000000000212e+00 5.506165000000000198e+00 1.015134499999999917e+01 1.860650000000000082e-01 1.775015000000000009e+00 5.317124999999999879e+00 7.703064999999999607e+00 4.415795000000000137e+00 4.985945000000000071e+00 2.038285000000000124e+00 1.475944499999999948e+01 1.312374499999999955e+01 1.294624499999999934e+01 6.635074999999999612e+00 1.433804499999999926e+01 9.707604999999999151e+00 3.059225000000000083e+00 9.292944999999999567e+00 7.725365000000000038e+00 1.433624499999999991e+01 1.201664500000000046e+01 2.810474999999999834e+00 7.602250000000000396e-01 9.130855000000000388e+00 8.437949999999999617e-01 8.723864999999999981e+00 1.104234499999999919e+01 1.280584499999999970e+01 1.362114500000000028e+01 7.992555000000000298e+00 8.650055000000000049e+00 4.459825000000000372e+00 3.869744999999999990e+00 1.280634500000000031e+01 2.416125000000000078e+00 9.017144999999999300e+00 9.921445000000000292e+00 1.400304500000000019e+01 1.224604999999999944e+00 1.241904500000000056e+01 1.239454500000000081e+01 1.122014500000000048e+01 6.519504999999999661e+00 1.511454499999999967e+01 5.637355000000000338e+00 1.469934999999999992e+00 5.771435000000000315e+00 1.182604500000000058e+01 9.479435000000000500e+00 1.054464499999999916e+01 1.259984500000000018e+01 5.995605000000000295e+00 2.083705000000000140e+00 1.227314499999999953e+01 5.064594999999999736e+00 5.024244999999999628e+00 3.531710000000000127e-01 8.875750000000000028e-01 8.643750000000000044e-01 1.378624499999999919e+01 1.523084500000000041e+01 1.173844500000000046e+01 6.884525000000000006e+00 6.576035000000000075e+00 7.720485000000000042e+00 7.278329999999999522e-01 1.218444500000000019e+01 8.148585000000000633e+00 1.501844499999999982e+01 1.076634499999999939e+01 4.933159999999999767e-01 4.088555000000000383e+00 4.486595000000000333e+00 3.103565000000000129e+00 2.616414999999999935e+00 8.364850000000000341e-01 1.514524499999999918e+01 1.165275000000000061e+00 1.009644499999999923e+01 3.866464999999999819e+00 1.300184499999999943e+01 3.640824999999999978e+00 8.700865000000000293e+00 8.718249999999999611e-01 9.807645000000000834e+00 1.267214500000000044e+01 4.187274999999999636e+00 8.199144999999999683e+00 2.208534999999999915e+00 8.934855000000000658e+00 5.598085000000000200e+00 1.517614500000000000e+01 1.749225000000000030e+00 1.114154500000000070e+01 1.906285000000000007e+00 6.993025000000000269e+00 9.612950000000000106e-01 7.096015000000000406e+00 6.379064999999999763e+00 5.669484999999999886e+00 5.697994999999999699e+00 1.431314500000000045e+01 3.710470000000000157e-01 2.673575000000000035e+00 6.647095000000000198e+00 6.070134999999999614e+00 1.261794500000000063e+01 9.053604999999999237e+00 1.266654499999999928e+01 7.395724999999999660e+00 1.356934500000000021e+01 4.116405000000000314e+00 5.685744999999999827e+00 2.477374999999999883e+00 4.611950000000000216e-01 9.582824999999999704e+00 3.142885000000000151e+00 9.416695000000000704e+00 7.553675000000000139e+00 1.309674500000000030e+01 5.533825000000000216e+00 9.393074999999999619e+00 3.883434999999999970e+00 4.414584999999999759e+00 9.802744999999999820e+00 9.754244999999999166e+00 5.062294999999999767e+00 9.708474999999999966e+00 5.607379999999999587e-01 5.432854999999999990e+00 1.256294499999999914e+01 1.392964500000000072e+01 1.075094499999999975e+01 8.235194999999999155e+00 1.661575000000000024e+00 2.750144999999999840e+00 1.018474499999999949e+01 5.840214999999999712e+00 5.740635000000000154e+00 9.400714999999999932e+00 7.282714999999999606e+00 1.331224500000000077e+01 1.190994500000000045e+01 3.403715000000000046e+00 9.891144999999999854e+00 1.253884500000000024e+01 1.450034499999999937e+01 2.918604999999999894e+00 4.538880000000000137e-01 4.789475000000000371e+00 1.455524499999999932e+01 9.320735000000000881e+00 1.504844499999999918e+01 1.514304500000000075e+01 1.409494499999999917e+01 1.416834500000000041e+01 1.017204500000000067e+01 1.380044499999999985e+01 2.864465000000000039e+00 9.567095000000000127e+00 5.536355000000000359e+00 1.405124999999999957e+00 1.380604499999999923e+01 1.023424499999999959e+01 3.059180000000000232e-01 4.745144999999999946e+00 1.464494499999999988e+01 1.474164500000000011e+01 6.557814999999999728e+00 1.094164499999999940e+01 3.387974999999999959e+00 1.633674999999999988e+00 5.441044999999999909e+00 8.758024999999999949e+00 1.241464500000000015e+01 1.397714500000000015e+01 8.795614999999999739e+00 6.877275000000000027e+00 1.093304499999999990e+01 1.243574500000000072e+01 1.350064500000000045e+01 1.166594500000000068e+01 1.159234499999999990e+01 4.066029999999999922e-01 7.911294999999999966e+00 2.345784999999999787e+00 5.021114999999999995e+00 7.931205000000000283e+00 5.531505000000000116e+00 1.495894499999999994e+01 1.401034499999999916e+01 8.699294999999999334e+00 3.468935000000000102e+00 3.404304999999999914e+00 9.356054999999999566e+00 9.248234999999999317e+00 1.127404499999999921e+01 1.327774499999999946e+01 7.718625000000000291e+00 9.564064999999999372e+00 5.747695000000000221e+00 8.531914999999999694e+00 1.335554499999999933e+01 1.252444500000000005e+01 1.476444500000000026e+01 1.701964999999999950e+00 1.244294499999999992e+01 1.041184499999999957e+01 6.640295000000000059e+00 2.691075000000000106e+00 1.184224500000000013e+01 6.790334999999999788e+00 2.819675000000000153e+00 1.420194500000000026e+01 1.333864499999999964e+01 4.983335000000000292e+00 4.558625000000000149e+00 1.353884500000000024e+01 1.061325000000000074e+00 5.773105000000000153e+00 5.874365000000000059e+00 8.158295000000000741e+00 4.610915000000000319e+00 8.117095000000000837e+00 4.998635000000000161e+00 1.426104499999999931e+01 1.181874499999999983e+01 1.187174500000000066e+01 9.444615000000000649e+00 3.479835000000000012e+00 1.023504499999999950e+01 1.041024499999999975e+01 7.498414999999999608e+00 1.012614499999999929e+01 1.426684500000000000e+01 3.444885000000000197e+00 1.007154500000000041e+01 4.014005000000000045e+00 1.519264500000000062e+01 3.663199999999999790e-02 3.589935000000000098e+00 8.949944999999999595e+00 3.680524999999999824e+00 1.178954500000000039e+01 4.632794999999999774e+00 6.411715000000000053e+00 3.725305000000000089e+00 3.923125000000000195e+00 9.613355000000000317e+00 1.230304499999999912e+01 5.061765000000000292e+00 8.655395000000000394e+00 8.609484999999999388e+00 7.231645000000000323e+00 1.258154500000000020e+01 1.219304499999999969e+01 9.358705000000000496e+00 1.400214500000000051e+01 1.337394500000000086e+01 1.487850000000000006e-01 1.426224500000000006e+01 1.816014999999999935e+00 5.166775000000000340e+00 1.296434499999999979e+01 1.065784999999999982e+00 9.768945000000000434e+00 1.186694499999999941e+01 3.642584999999999962e+00 2.729925000000000157e+00 1.308894500000000072e+01 1.508974500000000063e+01 6.288865000000000371e+00 8.720665000000000333e+00 2.926324999999999843e+00 9.381655000000000300e+00 6.882424999999999571e+00 1.347744499999999945e+01 9.181654999999999234e+00 5.109225000000000350e+00 1.303104500000000066e+01 3.355830000000000202e-01 2.214014999999999844e+00 4.391815000000000246e+00 1.337344500000000025e+01 3.761085000000000012e+00 9.303015000000000256e+00 9.412005000000000621e+00 1.381924500000000045e+01 7.624875000000000291e+00 3.350004999999999900e+00 9.986544999999999561e+00 1.571364999999999901e+00 3.392265000000000086e+00 9.412494999999999834e+00 1.025874499999999934e+01 3.788685000000000080e+00 8.848425000000000651e+00 5.985915000000000319e+00 2.371725000000000083e+00 4.169875000000000220e+00 1.091794499999999957e+01 1.464854500000000037e+01 1.206694500000000048e+01 1.079994499999999924e+01 1.305164500000000061e+01 1.105054499999999962e+01 7.070064999999999600e+00 3.775525000000000020e+00 1.889315000000000078e+00 4.933785000000000309e+00 3.324054999999999982e+00 2.797085000000000043e+00 6.418305000000000149e+00 2.279494999999999827e+00 2.950944999999999929e+00 1.180174500000000037e+01 1.592195000000000027e+00 1.423834500000000070e+01 1.405854500000000051e+01 1.437754499999999958e+01 1.203574500000000036e+01 4.690915000000000390e+00 1.830684999999999896e+00 1.172564500000000010e+01 1.520114500000000035e+01 6.734844999999999970e+00 1.467444500000000041e+01 1.381315000000000071e+00 3.592225000000000001e+00 3.979894999999999960e+00 1.272574499999999986e+01 3.656144999999999978e+00 1.788475000000000037e+00 4.365104999999999791e+00 1.463854500000000058e+01 1.322534500000000079e+01 2.622955000000000148e+00 1.544644500000000065e+01 1.282684500000000050e+01 4.191004999999999647e+00 3.812295000000000211e+00 9.359735000000000582e+00 5.277345000000000397e+00 8.319155000000000300e+00 1.299124499999999927e+01 1.195144499999999965e+01 5.979985000000000106e+00 1.073514499999999927e+01 1.022294499999999928e+01 3.278115000000000112e+00 9.981944999999999624e+00 2.956284999999999830e+00 3.965174999999999894e+00 7.995425000000000004e+00 6.043084999999999596e+00 1.179564500000000038e+01 7.346095000000000041e+00 1.319764499999999963e+01 1.044934499999999922e+01 1.442364500000000049e+01 9.904545000000000599e+00 1.511314499999999938e+01 9.668215000000000003e+00 9.330994999999999706e+00 7.966194999999999915e+00 1.517934499999999964e+01 9.423605000000000231e+00 1.246074499999999929e+01 9.806445000000000078e+00 7.098925000000000374e+00 2.736104999999999787e+00 4.477384999999999948e+00 9.100324999999999775e+00 1.252264500000000069e+01 6.323954999999999771e+00 1.433524500000000046e+01 1.234344499999999911e+01 1.162694499999999920e+01 6.872474999999999667e+00 1.232374999999999998e+00 5.586005000000000109e+00 6.899065000000000225e+00 8.415195000000000647e+00 1.104794500000000035e+01 5.959105000000000096e+00 4.540754999999999875e+00 2.171405000000000030e+00 5.432034999999999947e+00 6.787944999999999673e+00 1.392494499999999924e+01 1.379494500000000023e+01 1.129664499999999983e+01 8.376305000000000334e+00 8.261044999999999305e+00 1.102044500000000049e+01 5.273995000000000211e+00 1.451864499999999936e+01 1.067884500000000081e+01 8.258924999999999628e+00 1.274914500000000039e+01 1.276774499999999968e+01 4.613374999999999559e+00 1.629625000000000101e+00 5.004735000000000156e+00 1.132104499999999980e+01 1.345694499999999927e+01 1.257144500000000065e+01 4.841174999999999784e+00 1.191134500000000074e+01 1.523584499999999942e+01 1.532794999999999908e+00 9.457015000000000171e+00 5.123624999999999652e+00 8.397285000000000110e+00 6.720824999999999605e+00 1.447304500000000083e+01 3.326744999999999841e+00 1.272254500000000021e+01 5.696385000000000254e+00 1.629564999999999930e+00 1.353944500000000062e+01 1.312624500000000083e+01 2.097344999999999793e+00 9.588149999999999729e-01 9.908350000000000213e-01 4.713424999999999976e+00 1.369894500000000015e+01 1.415764999999999940e+00 1.458014499999999991e+01 7.507685000000000386e+00 9.930944999999999467e+00 4.907124999999999737e+00 1.013364499999999957e+01 9.941045000000000798e+00 9.210634999999999906e+00 8.851494999999999891e+00 1.503344500000000039e+01 3.530425000000000146e+00 1.108954499999999932e+01 7.506664999999999921e+00 1.454994499999999924e+01 3.412675000000000125e+00 5.584114999999999718e+00 1.387414500000000039e+01 9.528149999999999675e-01 6.263835000000000264e+00 8.861224999999999241e+00 4.263465000000000060e+00 1.458764500000000019e+01 1.984445000000000014e+00 9.894845000000000113e+00 2.787564999999999849e+00 1.013754499999999936e+01 1.167244499999999974e+01 7.600304999999999644e+00 3.780584999999999862e+00 9.817545000000000854e+00 1.536234499999999947e+01 3.206665000000000099e+00 8.548045000000000115e+00 6.394124999999999837e+00 1.287224499999999949e+01 6.821175000000000210e+00 8.748454999999999870e+00 1.139014500000000041e+01 1.010374499999999998e+01 6.068134999999999835e+00 1.271834499999999935e+01 8.612045000000000172e+00 1.015274499999999946e+01 1.231104999999999894e+00 4.280935000000000379e+00 8.490745000000000431e+00 1.423394500000000029e+01 4.246195000000000164e+00 8.445225000000000648e+00 1.059814500000000059e+01 7.308275000000000077e+00 1.411774499999999932e+01 8.648365000000000080e+00 1.410944999999999894e+00 9.835044999999999149e+00 9.156985000000000596e+00 1.087354500000000002e+01 4.935624999999999929e+00 1.366254499999999972e+01 8.838949999999999863e-01 1.100164499999999990e+01 1.034494499999999917e+01 5.981760000000000410e-01 8.127325000000000799e+00 1.292104499999999945e+01 1.521694500000000083e+01 2.836345000000000116e+00 1.045894499999999994e+01 1.311834499999999970e+01 4.159164999999999779e+00 8.005934999999999135e+00 1.290614500000000042e+01 8.302295000000000869e+00 1.175154500000000013e+01 9.824044999999999916e+00 1.217194499999999913e+01 1.620854999999999935e+00 5.744494999999999685e+00 2.242725000000000080e+00 8.008105000000000473e+00 7.681225000000000414e+00 7.864455000000000418e+00 2.121595000000000120e+00 9.096484999999999488e+00 1.239514499999999941e+01 1.495984499999999962e+01 1.168954500000000074e+01 8.068395000000000650e+00 1.285554499999999933e+01 1.375744500000000059e+01 8.951249999999999485e-01 6.615104999999999791e+00 5.074785000000000323e+00 4.414044999999999774e+00 1.284204500000000060e+01 2.284864999999999924e+00 8.865434999999999732e+00 1.541624499999999998e+01 1.063894499999999965e+01 3.430334999999999912e+00 6.197214999999999918e+00 4.878154999999999575e+00 1.289264499999999991e+01 1.255304499999999912e+01 1.271024500000000046e+01 8.186225000000000307e+00 3.927385000000000126e+00 1.400074500000000022e+01 1.262644500000000036e+01 1.395404500000000070e+01 1.408004500000000014e+01 6.448084999999999845e+00 1.198324500000000015e+01 8.154654999999999987e+00 3.730764999999999887e+00 1.202174499999999924e+01 2.433205000000000062e+00 2.167104999999999837e+00 4.951490000000000058e-01 6.371014999999999873e+00 1.168364500000000028e+01 1.211534499999999959e+01 4.616855000000000153e+00 9.158924999999999983e+00 9.646295000000000286e+00 1.418354500000000051e+01 2.143475000000000019e+00 6.727755000000000152e+00 5.025070000000000370e-01 5.804274999999999629e+00 8.583024999999999238e+00 8.503045000000000186e+00 5.659604999999999997e+00 1.536914499999999961e+01 5.585205000000000197e+00 1.362274500000000010e+01 1.342474499999999971e+01 9.838544999999999874e+00 7.304194999999999993e+00 1.384854499999999966e+01 5.407754999999999868e+00 1.062564500000000045e+01 1.737964999999999982e+00 1.475065000000000071e+00 9.428884999999999295e+00 5.327094999999999914e+00 3.734405000000000197e+00 2.973535000000000039e+00 1.139584499999999956e+01 9.940400000000000624e-02 1.251085000000000003e+00 1.509614999999999929e+00 1.167664500000000061e+01 7.154474999999999696e+00 8.529284999999999783e+00 3.240425000000000111e+00 8.024805000000000632e+00 1.079154499999999928e+01 2.948275000000000201e+00 1.116769999999999985e-01 5.074284999999999712e+00 6.700955000000000439e+00 5.489124999999999588e+00 1.545684499999999950e+01 5.403210000000000512e-01 1.505664499999999961e+01 3.670844999999999914e+00 1.831904999999999895e+00 1.482904500000000070e+01 8.826285000000000380e+00 5.792444999999999844e+00 9.982349999999999834e-01 1.361034500000000058e+01 6.316295000000000215e+00 2.875214999999999854e+00 5.881154999999999688e+00 1.924914999999999932e+00 7.207614999999999661e+00 9.541434999999999889e+00 3.752314999999999845e+00 1.032474500000000006e+01 3.675615000000000077e+00 1.530004500000000078e+01 8.896475000000000577e+00 8.235744999999999649e+00 9.505594999999999573e+00 3.464144999999999808e+00 2.901324999999999932e+00 3.820495000000000196e+00 3.091784999999999783e+00 3.163794999999999913e+00 5.394384999999999764e+00 8.938974999999999227e+00 8.298785000000000522e+00 1.098514499999999927e+01 1.445754499999999965e+01 1.511894500000000008e+01 2.050314999999999888e+00 1.317434999999999912e+00 1.127995000000000081e+00 1.285354500000000044e+01 1.106844500000000053e+01 7.253364999999999618e+00 2.714325000000000099e+00 4.155775000000000219e+00 8.650484999999999758e+00 4.755325000000000024e+00 3.139435000000000198e+00 5.554045000000000343e+00 1.367464499999999994e+01 8.491184999999999761e+00 1.123389999999999944e-01 6.444485000000000241e+00 6.094394999999999563e+00 7.035955000000000403e+00 4.963095000000000034e+00 9.070045000000000357e+00 1.302654500000000048e+01 1.026914499999999997e+01 3.121245000000000047e+00 5.952575000000000394e+00 9.286315000000000097e+00 1.442754500000000029e+01 1.190324500000000008e+01 1.309094499999999961e+01 1.040984500000000068e+01 1.347004500000000071e+01 1.098984500000000075e+01 1.317254499999999950e+01 2.877635000000000165e+00 8.733415000000000816e+00 8.864065000000000083e+00 2.261340000000000017e-01 2.919785000000000075e+00 1.011334500000000070e+01 1.485554499999999933e+01 4.303734999999999644e+00 1.542884500000000081e+01 9.823145000000000238e+00 1.306764500000000062e+01 1.435584500000000041e+01 6.949754999999999683e+00 5.535535000000000316e+00 6.911374999999999602e+00 3.741414999999999935e+00 1.037814499999999995e+01 4.979964999999999975e+00 9.487135000000000318e+00 1.425974999999999993e+00 1.930134999999999934e+00 1.438244500000000059e+01 8.018724999999999881e+00 4.739124999999999588e+00 1.047234999999999916e+00 1.338774500000000067e+01 8.986345000000000027e+00 5.163355000000000139e+00 8.338025000000000020e+00 1.158295000000000075e+00 2.818515000000000104e+00 7.766365000000000407e+00 1.979135000000000089e+00 5.554694999999999716e+00 3.172645000000000159e+00 1.401904500000000020e+01 9.269334999999999880e+00 1.312674499999999966e+01 6.099994999999999834e+00 1.994655000000000067e+00 1.516364500000000071e+01 1.060354500000000044e+01 9.094015000000000626e+00 9.506964999999999222e+00 1.263264500000000012e+01 5.739214999999999733e+00 1.407544500000000021e+01 1.495414500000000046e+01 1.316685000000000105e+00 5.347425000000000317e+00 4.560094999999999565e+00 1.405564999999999953e+00 4.241204999999999892e+00 1.231064499999999917e+01 2.776885000000000048e+00 3.607864999999999878e+00 1.051364500000000035e+01 2.116655000000000175e+00 1.712895000000000056e+00 5.394495000000000040e+00 1.330484500000000025e+01 1.084634499999999946e+01 9.486625000000000085e+00 1.215304500000000054e+01 2.367990000000000095e-01 9.201415000000000788e+00 1.111474499999999921e+01 5.147084999999999688e+00 1.457744500000000087e+01 9.922845000000000582e+00 6.300824999999999676e+00 1.034654500000000077e+01 1.326574500000000079e+01 6.070165000000000255e+00 5.812204999999999622e+00 3.838464999999999794e+00 1.097724499999999992e+01 1.324844500000000025e+01 1.004344500000000018e+01 2.305429999999999979e-01 3.802455000000000140e+00 1.136624499999999927e+01 1.155204499999999967e+01 1.405304499999999912e+01 5.245004999999999917e+00 7.320609999999999618e-01 1.388534499999999916e+01 1.414064499999999924e+01 8.574635000000000673e+00 2.311195000000000110e+00 1.193034500000000087e+01 4.241024999999999601e+00 5.963535000000000252e+00 2.681674999999999809e+00 1.534354500000000066e+01 1.412274500000000010e+01 4.997774999999999856e+00 5.369695000000000107e+00 1.021364499999999964e+01 4.182464999999999655e+00 8.431634999999999991e+00 3.829635000000000122e+00 1.447064499999999931e+01 1.212414500000000039e+01 6.913839999999999986e-01 1.515194499999999955e+01 1.544234499999999954e+01 1.791935000000000056e+00 3.667885000000000062e+00 4.740725000000000300e+00 1.346544500000000077e+01 8.101734999999999687e+00 4.870180000000000065e-01 7.619914999999999772e+00 1.030784500000000037e+01 9.628645000000000564e+00 1.026314499999999974e+01 1.470394499999999915e+01 3.336089999999999889e-01 1.281744499999999931e+01 6.886144999999999960e+00 7.770694999999999908e+00 4.370025000000000048e+00 8.976650000000000462e-01 1.070134499999999989e+01 9.129350000000000520e-01 9.730849999999999778e-01 1.113664499999999968e+01 1.289884499999999967e+01 6.435975000000000001e+00 7.298725000000000129e+00 1.298254500000000000e+01 4.066835000000000200e+00 5.851774999999999949e+00 2.448684999999999778e+00