-7.780184466221026378e+04
-7.780300491313883686e+04
-7.779996829870504735e+04
-7.780419830643585010e+04
-7.779649078217333590e+04
-7.779308290688626585e+04
-7.780485798896332562e+04
-7.779356086732052790e+04
-7.781633367555773293e+04
-7.778062773749676126e+04
-7.779909334582432348e+04
-7.779860819577195798e+04
-7.779951103544737271e+04
-7.780277715493840515e+04
-7.781404125257913256e+04
-7.780793232713107136e+04
-7.778805644054866571e+04
-7.780067722618432890e+04
-7.781008037720416905e+04
-7.779998238312649482e+04
-7.779036249085706368e+04
-7.781407957294068183e+04
-7.781597273217354086e+04
-7.779659913472553308e+04
-7.779570162684419483e+04
-7.780125575174437836e+04
-7.779809977994220390e+04
-7.780490459476788237e+04
-7.781117636364379723e+04
-7.780643502455091220e+04
-7.780265071298691328e+04
-7.779245632414754073e+04
-7.779540508699230850e+04
-7.779802544321220194e+04
-7.779948704853029631e+04
-7.779165682672892581e+04
-7.780503469859341567e+04
-7.780850327003101120e+04
-7.779179015369592526e+04
-7.778891880535960081e+04
-7.780049420333912713e+04
-7.780192192854802124e+04
-7.780277216074604075e+04
-7.779658278302961844e+04
-7.778112539473685320e+04
-7.780855582543472701e+04
-7.779289951590090641e+04
-7.779494060644331330e+04
-7.780808406168011425e+04
-7.779843772827267821e+04
-7.780300768744513334e+04
-7.777715697687047941e+04
-7.780466236749738164e+04
-7.782076922733768879e+04
-7.778087346288991102e+04
-7.780942131905615679e+04
-7.779640907580155181e+04
-7.781235454189618758e+04
-7.779542284260578163e+04
-7.779496643157940707e+04
-7.777574725837493315e+04
-7.779652850611292524e+04
-7.779683816030772869e+04
-7.779998445430624997e+04
-7.779480956686675199e+04
-7.780165866100539279e+04
-7.779451209225824277e+04
-7.779937616503704339e+04
-7.779879948530245747e+04
-7.780594894820477930e+04
-7.779702496888597670e+04
-7.779593952704872936e+04
-7.780099204912647838e+04
-7.780884052591603540e+04
-7.779530189128433994e+04
-7.781134678647431429e+04
-7.779663338704245689e+04
-7.779079815756055177e+04
-7.780826392690339708e+04
-7.781144900634919759e+04
-7.780975539500615560e+04
-7.779688702725777694e+04
-7.780129753418669861e+04
-7.779623507128538040e+04
-7.781072201474398025e+04
-7.780100593218536233e+04
-7.780455325870738307e+04
-7.779886550529257511e+04
-7.778880356310924981e+04
-7.779612245304908720e+04
-7.779641278988514387e+04
-7.780325176052239840e+04
-7.779425466592804878e+04
-7.778828368104824040e+04
-7.780275547486265714e+04
-7.780179480898163456e+04
-7.781333962490387785e+04
-7.779592638435597473e+04
-7.779680692936883133e+04
-7.780030117336541298e+04
-7.779888837980157405e+04
-7.780397019732098852e+04
-7.781067958784544317e+04
-7.778864168639788113e+04
-7.780841279749435489e+04
-7.781547504673253570e+04
-7.779694807735479844e+04
-7.780359067034916370e+04
-7.781309918166237185e+04
-7.779832362491959066e+04
-7.779832643647448276e+04
-7.779549198945936223e+04
-7.781270896667984198e+04
-7.780902740017640463e+04
-7.780047377150921966e+04
-7.779473519226793724e+04
-7.779741222410011687e+04
-7.779071975482610287e+04
-7.779899792436280404e+04
-7.779665561375563266e+04
-7.780513804374019674e+04
-7.779002117531103431e+04
-7.779427812421905401e+04
-7.779105010700313142e+04
-7.779969722362568427e+04
-7.780800707819517993e+04
-7.779573051739424409e+04
-7.779587341403249593e+04
-7.780977861050733190e+04
-7.779635450676934852e+04
-7.779051209816013579e+04
-7.779911426328594098e+04
-7.779861398998809454e+04
-7.780211668343695055e+04
-7.778655098354023357e+04
-7.779499160456332902e+04
-7.779918214260929381e+04
-7.780832066274863610e+04
-7.780384175688469259e+04
-7.780184408386051655e+04
-7.779199043165020703e+04
-7.780578587530503864e+04
-7.780175042646778456e+04
-7.779796782345969405e+04
-7.780794913119528792e+04
-7.779494623841119756e+04
-7.780014041022444144e+04
-7.780627472567511722e+04
-7.778997142727916071e+04
-7.781168711790343514e+04
-7.779696546692779521e+04
-7.778899552085364121e+04
-7.781080360569024924e+04
-7.779272729880521365e+04
-7.779943547817722720e+04
-7.780561554570699809e+04
-7.781388934775459347e+04
-7.780300677570578409e+04
-7.780583497353730490e+04
-7.780787906072066107e+04
-7.780493463856475137e+04
-7.779598570624658896e+04
-7.779328169407036330e+04
-7.779359492140132352e+04
-7.780106108387652785e+04
-7.779877106235497922e+04
-7.781127226437114587e+04
-7.781230208665692771e+04
-7.779580354076970252e+04
-7.779974961096006155e+04
-7.780571805321157444e+04
-7.779086366894049570e+04
-7.780664105757890502e+04
-7.780040680340884137e+04
-7.778105723943449266e+04
-7.780033424024314445e+04
-7.780568513917979726e+04
-7.778837246278156817e+04
