-1.642927342558492931e+00 -9.319905202231988373e-01 3.773046378552663782e+00 -1.766397382996573784e+00 -1.343945044072240247e+00 5.397584161340273079e-01 -1.158035243980355816e-01 -2.099971306274150518e+00 -8.788571263412606749e-01 1.727704848324012277e+00 -1.106173003606432337e+00 2.155745737541672646e+00 -1.825071504649085963e+00 1.059786699198063120e+00 -6.660744108965855226e+00 1.160401687525616454e+00 3.079018160444935148e+00 6.090211128109272565e+00 -1.915077092014923821e+00 4.138177510419787986e+00 -6.228137968597647484e-02 1.554706100934083679e+00 -2.039965867294676549e+00 1.783880371717849744e+00 1.619015566961326424e+00 -1.582693075378748704e+00 -1.764140982675712621e+00 -1.316089195899639686e+00 -1.129852865679280782e+00 -4.270395987197615817e+00 -3.979881874783364193e+00 -2.422285853657111243e+00 4.871427910495083502e+00 -3.224403771820751885e+00 -1.647442200082914310e+00 8.987914050191332382e-01 -8.333928196027419188e-01 -9.669045613775997250e-01 -8.758029126435044276e+00 -1.037905581045536874e+00 -2.082702747574251223e+00 9.224820657261514345e-01 4.914242438096546595e-01 -5.723944596992270456e-02 8.409564915078346012e-03 -4.922572813027712990e-01 -2.051734321657308069e+00 3.689075685025847706e-01 5.615069167745320833e+00 -2.592251727507286052e+00 5.493602531056116511e+00 -4.585626630565037054e+00 7.398205976367463466e-01 4.175611747101203974e+00 -4.650896660812738226e+00 -6.969021974589804103e-01 -4.875025398335727012e+00 -3.572437580472671570e+00 4.416559614454349081e+00 -4.579968660480617793e+00 9.225057198771904332e-01 -6.345256869481725737e-01 1.511861234312808833e+00 6.392230928121350964e+00 2.838549546760668618e-01 1.837290930543485246e+00 -1.199298882026733404e+00 7.067076658177709803e+00 4.237904953862699386e+00 -2.525944514158588450e-01 2.730396597561761229e+00 1.070104022816513289e+00 1.995458525231891933e+00 5.211048554687200962e+00 -2.273061070723512642e-02 2.122178440334476779e+00 -1.508378931903312237e-01 -3.936515074177204809e+00 2.161996604064094996e+00 4.220023958339155778e-01 2.136818302944987202e+00 9.787213524836596568e-02 -2.442929242645482280e+00 -5.245477685745300045e-01 -4.863036343303622222e-01 -1.569042573346483449e+00 2.039126144932787987e+00 5.330502531655382015e+00 -2.198560779363811502e-01 -1.689317760732260254e+00 -1.638156917358714271e+00 -5.117318466974053043e-02 9.747412844609918414e-01 -3.602451612817253679e+00 6.844107488276311990e-01 -3.232317113784683116e+00 2.550055293156887615e+00 -4.462309313667360833e+00 -1.598847317876436636e+00 -9.650554238311511712e-01 7.523845513832371212e-01 -1.577206854999699814e+00 -3.410969717493633979e+00 1.956163323928508335e+00 -6.419740191559161424e+00 -2.735136169521054317e+00 3.790639410498339301e-01 3.890930439800791341e+00 5.825414220081280625e+00 7.610959638344014788e-01 -3.455604072063085397e+00 -1.505414963933976669e+00 -2.234998456377536302e-01 6.943660610910479258e-01 -7.688724716767786127e+00 2.727965362211480116e+00 7.483062672116895797e-01 3.527503949470508715e+00 -5.424744268939918790e+00 7.699750122255385465e-01 1.070015062639779080e+00 1.484400821839101416e-02 -8.623470431366366817e-01 5.284291062276431639e-01 2.693587139000182873e+00 1.484559716027603171e+00 -4.769915607090069010e+00 4.684289637211190183e+00 9.675355101455344053e-01 -1.085975958163756028e+00 3.096863160521245439e-01 -5.297198001212989338e-01 2.045127100207275284e+00 -2.756537519784026280e+00 -3.052154243953952850e+00 1.436292392390949635e+00 1.332555570346908969e+00 9.668649663856431209e-01 3.035069262034943982e-01 -4.275117561433292024e-01 -2.995918556741168359e+00 5.123545679345436810e+00 2.919089874166139520e+00 -7.295667288495621072e+00 1.090715530123048893e+00 1.006941268893992492e+00 -3.686324604415864292e-01 -7.630458886331037416e-01 -3.646819601077177175e+00 1.981015609139816780e+00 -3.139301792809456870e-01 8.034497497112772502e-01 -5.806528437359250588e-02 -1.550710606291173077e+00 -1.589168142115367777e-01 -3.829144254624611970e-02 -2.804311705793581577e+00 2.763567944849389946e+00 -8.225982991981114489e-01 4.833014597648918276e+00 -3.115334481379416154e+00 -3.331064966842171016e-01 -2.622696676777319880e+00 -1.904222407791345884e+00 -2.934195106487310412e+00 1.072964118209546180e+00 2.762282393162481586e+00 -6.005639824834331231e-01 2.716339346975757962e+00 -7.536706172908199663e-01 -2.264704984758609541e-01 1.250342483086433587e+00 -1.765898074721378386e+00 -2.751975353957526682e+00 -5.793010090040398907e+00 5.965705447232216851e-01 -1.264561198964312627e+00 -1.095907616276133645e+00 -4.039429143141624934e+00 6.626710413606649863e-02 -2.393317746164997928e+00 -2.068432095408221094e-01 2.966043363978772440e+00 -8.443503479612721055e-04 -2.025188707764004281e+00 -4.645275200396225657e+00 1.785513022360223079e-01 -2.052292251089426589e+00 2.192829275722900206e+00 -3.297972809538456840e+00 -2.355399627828630216e+00 6.194996446109154675e+00 1.426544825280137374e+00 2.937845559057454259e-01 1.605112582577752134e+00 3.399260912729274997e-01 -2.478307110848519679e-01 4.147214938778752469e+00 -6.961514352738260580e-01 -1.185618555195331991e+00 4.720736055976385015e-01 5.881883363480407745e+00 -4.331070941495632098e+00 -2.003165664705243820e+00 -2.842725532860421289e+00 -1.997389423865628233e+00 -5.019353257783556010e+00 -3.724000524814419233e+00 3.719538117798824040e-01 -3.568156693355267528e+00 2.901558548701435036e+00 3.078199521130712046e+00 -2.411657940751104512e+00 6.520568581466740454e+00 2.668315763938942542e+00 -2.766373018630222891e+00 -3.730832974919997991e+00 2.246151902813151136e+00 9.475168992770007792e-01 1.323897122625245171e+00 -5.371366106016793651e+00 1.033352156970508279e-01 1.091457859089137017e+01 -6.817953710537178580e+00 -2.575574008362689682e+00 1.040480283964076547e+00 -3.878509439401885139e-02 2.486048703107080371e+00 -7.712538790436748171e-01 -1.241828017153703723e+00 7.174798690451166472e+00 2.788968389299995576e-01 6.111126025613917712e+00 -2.826442735194042655e+00 5.276258935336629596e-01 -1.339641017024471914e+00 -2.371956505114657165e+00 -1.940664198570468679e+00 -2.677649897627245104e-02 -1.224912213836691688e+00 3.697618947316364757e+00 8.236478235953033356e-02 -3.602182675404352441e+00 1.457958052080750022e+00 4.739495854633098304e+00 -8.782662867859577505e-01 -7.677165550219784418e-01 1.115330759603291311e+00 4.502354248714550700e+00 -2.028049317377712324e+00 2.586333561761436250e+00 -1.595174239596602650e+00 1.147409387957047722e+00 4.926491174569407883e-01 -1.426302627342323825e+00 1.549721245712928575e+00 -8.935442972538489848e-01 -3.966060651487077759e+00 1.348559146186891211e-01 1.432604915932222500e+00 2.951597362562648375e+00 -1.168742346870276227e+00 -1.436351527768547465e+00 7.947583918664286040e-01 6.873016974611503294e-01 -2.064822266271383100e+00 -1.584889826101337329e+00 1.049307396067062470e+00 3.284292996927729913e+00 3.020084871572342733e-01 5.242175874792645907e+00 2.670856014072272799e+00 2.059491854756787088e+00 9.561583777163972231e-01 3.969259618304779913e+00 1.623519111630902900e+00 3.145957351002917513e+00 -1.537813951768110643e+00 1.957832998459464457e+00 1.164230060449228832e+00 -3.250756552961019175e+00 -2.366934626004919551e+00 6.115497929790755238e-01 4.427453379449208803e+00 -2.113405835623015872e+00 3.915820777342032599e+00 -2.841676008463229763e-01 1.693064372568585219e+00 1.453149625973106573e+01 9.258406980633674621e+00 9.113759275926144099e+00 1.132321124918144184e+00 1.118731300925500660e+00 -9.773303855584248856e-01 -1.928137268712560859e+00 -1.403052653753577905e+00 -2.398458924471281062e+00 1.061144756000113043e+00 -2.406221085556832673e+00 -1.551751388936893905e+00 5.064202042374382984e+00 2.277303391290309564e-01 -1.225408436787837896e-01 -2.159309801038456822e+00 3.164694009729266955e-01 -3.672009729271804801e+00 7.553685739588882342e-01 -8.923487341850243615e-01 3.546631415909677343e-01 -4.091612771437275420e+00 -1.535764782379178905e+00 -1.067901101445827283e+00 -6.865159682701120758e-01 -1.588955768976690663e+00 2.207540615007202334e+00 1.182759488243647850e+00 2.181443915762966590e+00 -2.114434791193216867e+00 -1.611331053197664620e-01 3.253816165975860653e+00 2.442717897948154526e+00 5.636892178961597777e-01 -2.566265071487449756e+00 2.088769523095107772e+00 -7.280161478268809550e-01 7.957184418662117675e-01 -3.933633895736506347e-01 4.201480132365843723e+00 -2.699637973680121816e-01 -2.288936091394803807e+00 -1.596074639998113387e+00 1.498589198697169333e+00 5.859384666297491329e+00 1.535016591297398536e+00 -1.251167293048754070e+00 2.273886394906507569e+00 -4.007812799174480745e+00 7.350625137331618930e-01 1.499366700357411375e+00 -2.308543325723526607e+00 7.324507869260392656e-01 1.783749759666460211e+00 -1.403582301048584169e+00 -2.927180622262864351e-01 2.221541301318981532e+00 -2.731967027502488210e-01 8.107871645194743015e-01 5.705232106637635470e-01 -1.199329221046544491e+00 -6.607678592212987034e+00 -3.715112220451135983e+00 -1.908044610066861546e+00 -1.098587220212324800e+00 4.558735974598967511e-01 -2.222512149952934557e+00 -3.024747310430421443e+00 -2.439503504510209364e+00 -1.140653556732008189e+00 -2.703633468323032862e-01 -1.048097949040019516e+00 -2.409843770210539637e-01 1.320693527821470148e-01 2.269493921902679734e+00 -1.522761684176440755e-02 -1.212062353395032321e+00 -1.017582037316868471e+00 -1.921487366946522668e+00 -1.266322918996051650e+00 -1.970381525585712224e+00 -6.326447705640235952e+00 -3.029202518356569840e+00 2.470503812108987507e+00 -1.190269681198565355e+00 -1.658045430396532627e+00 2.342275173546647160e+00 4.862625480984486437e+00 -5.606132012417934796e+00 -2.408162268604063516e-01 1.712558478348860547e+00 -2.022696794374101881e+00 4.589033856756019603e+00 2.861939902593625185e+00 -7.511046561237512131e-01 -3.072687589717924883e+00 4.071016176530307895e+00 -2.890248264960017632e+00 8.617783150703485218e-01 2.008270847564293859e+00 5.668753291969930164e-01 -7.657306347760426402e-01 -1.206954599432608966e+00 3.353554408052942915e+00 -7.608813281247551963e+00 -4.215566179309633732e+00 2.992426484138850817e+00 3.864541663213290956e+00 1.937795361425964424e+00 -1.317237964887060686e+00 -2.130155031441404390e+00 -2.773728945382711419e+00 2.870124238853157372e+00 -1.236899469096435134e+01 -3.872334163318652767e+00 1.552075347961994867e+00 -3.755268227164073824e+00 -8.319848833952401268e-01 4.270052487786873407e-01 -1.847565573845930009e+00 4.090924229953767366e+00 3.571944442845573775e+00 -3.190238435968805852e+00 6.084068762149223986e-01 -1.252253841334528772e+00 -4.162626646622081261e-01 -8.194373847103418873e-01 2.038311105163288062e+00 -1.270071587715075667e+00 -4.254096220248970023e-02 -1.494609130674501518e+00 -2.678179544922251187e-01 -2.138334225494188612e+00 -3.884709912298180523e+00 1.598195800281511536e+00 6.139799998880066667e-01 -1.157524622850315765e+00 1.836305683730638849e+00 -2.427125184427307847e+00 -7.550790677189964661e-01 -3.585846913008472914e+00 -2.545320349183667563e+00 -2.712788653216517520e+00 4.772140639949769003e+00 3.386869737129504898e+00 6.189139472623601534e-01 2.852044239928481328e+00 -6.791540251357288227e+00 -4.766626651654282121e+00 -3.013301272430865207e+00 -1.407629731979645804e+00 4.925965641039800502e+00 -2.170869481807135237e+00 1.761406871347996450e+00 -5.999566364444703481e+00 1.012300990987049953e+00 4.456636945404047978e+00 -6.449806160191894122e+00 -4.601616836667476451e-01 -4.183411446296012581e-01 1.377081424353984618e+00 -3.704133094824265893e+00 8.506762907022097364e-01 4.751100786821155775e-01 2.391361650718198284e+00 4.374716963928187430e-01 3.856850978801531937e+00 9.960037951417779478e-01 -1.282864883882510965e+00 2.468562114841081456e+00 1.454307599510605842e+00 1.537170147483307048e+00 -1.148792127351486281e+00 7.554621621216951743e-02 2.036843519357513788e-01 2.723623797054454343e+00 4.716333298559061582e+00 -2.396196867722997226e+00 -4.348738535439148123e+00 -2.591340014250931301e+00 -4.411840611322046080e+00 -1.420645171478578606e+00 9.006318008141108722e-01 -5.709788616036712838e+00 6.988643092876746010e+00 4.186541507543296348e+00 -2.577594381393834233e+00 -2.396891065633927731e+00 8.223365608746568967e-02 2.096248862809539482e+00 -1.937476030386936499e+00 -4.035367314031669816e-01 3.052874667119296337e+00 4.362643062484746204e-01 9.526061412951326579e-01 5.278860891950932777e-01 3.491788238284151191e+00 -2.915332977916318957e-01 1.063871154017707710e+00 7.220079934629470841e+00 2.057530102882564993e+00 -2.831454844110960156e+00 1.075784618610623022e+00 -3.713663660810327283e+00 -6.321996611479486106e+00 2.271104461056038470e+00 1.187882154605639506e+00 4.797162617983749655e+00 1.721476607511279955e+00 3.513831850169902626e+00 -1.443737279320172151e+00 -8.401584210206020087e-01 5.012263183119919363e-01 6.958588437098857105e-01 6.617289890844986200e-01 -1.284230653994682170e+00 1.419367333101791695e-01 6.783429448654247906e-01 -1.844079157671034919e+00 -5.824011940301201395e-01 -6.698716734693749286e-01 4.969068646439805947e-01 -3.827674097715463297e+00 -3.531746270037305457e+00 1.047260797781504715e+00 7.632973425430629177e-01 3.227447958215349910e+00 2.395368458215953733e-01 -1.376933843020327952e+00 -1.821354203391222226e+00 5.726824232770945100e-01 1.706771953095749694e+00 -4.326447069188160688e-01 -1.346513062122007831e+00 -8.545637990034200548e-01 -4.506876819549093249e-01 4.086696821786539147e+00 1.016131420793361606e+00 1.228473192009426999e-02 1.069211849945798987e+00 -2.187853162253216244e+00 -2.145326084008944978e+00 1.516113839293101284e+00 -2.512674535425647893e+00 6.560797607515493901e-01 4.942159478529444261e-01 3.929931506878210912e-01 1.883117248637037555e+00 -3.682289514780996420e+00 2.377759485429360886e+00 -7.169758299397137602e-01 -1.266385653918372656e+00 -1.839053679016573906e+00 -9.298045681347800739e-01 -3.762244144837912363e-01 -4.862151883743028868e-01 -3.332572661860577323e+00 9.437862282815933090e-01 -5.409097562248221802e-01 1.572651374041971750e-01 -5.250918140484296393e-01 -2.611352454471367768e+00 3.006684280788011865e+00 -5.013491142091253572e+00 -5.185144173975327897e-01 -1.881254741353044935e+00 -9.652420859360902883e-01 9.268071758215851164e-01 2.112120798156782442e+00 4.538223711882661826e-01 -2.072584427356934267e+00 5.532911616317720549e-01 -2.068201724545926989e+00 2.203830512838785172e+00 9.613509780901566826e-01 4.453614356277789454e+00 -1.977546162247188821e+00 2.310491193639530039e-01 4.983265250828669224e+00 1.893452569979104050e+00 -7.611237317508386113e-02 1.813108674871393600e+00 4.101089858473162542e-01 2.003487052626971021e+00 8.401116269391986080e-01 4.356693529277735344e-01 6.197328951089881244e+00 -7.662623389537479568e-01 -6.387561804394499276e-01 3.697678596914637517e-01 2.084566283299593259e+00 -4.495486831603086597e-01 -3.474697085717045053e-01 -7.832964130259556512e-01 -6.364564313157062614e+00 1.369318234827083813e+00 9.330127909246281881e-01 -2.365967376915689702e+00 -8.496679039589990490e-01 1.396007830509321312e+00 -5.736116200363917672e-01 -1.323727429802573352e-01 5.588082352513069617e-01 2.529384136252079696e+00 -4.943362754908390277e-01 -1.061010030183324959e+00 1.165539780507850898e+00 -5.553794117919855777e-01 -2.620207848711465726e+00 -2.238036472124037335e+00 1.276177958227889375e+00 3.044777748374474236e+00 -4.634650372814267949e-01 -8.919928934780881058e-02 3.903224427693031906e+00 7.613499888477344157e-01 1.251190432979118361e+00 1.087813782855360012e+00 -2.303451512602021356e-02 -8.856062726975284793e-02 -1.122766390560367977e+00 -1.899477179404630345e+00 2.811049025074329744e-01 -3.052955913985909042e+00 3.638080420709575713e-01 6.055077000506070561e-01 4.880257593701443630e-01 2.217648650811023359e+00 9.730099034490640175e-01 -1.793201649889283544e+00 -1.725285954269925925e+00 2.124050203590615027e+00 2.324840007348124349e+00 3.196445593733873825e+00 -2.141769219601607155e+00 7.961987239764405089e-02 1.514925989534397832e+00 3.894609688728722929e+00 -6.882730603157781735e-01 9.483489083287675037e-01 4.400697449299926234e+00 -2.406310559954241146e+00 -6.903777655375841205e-01 -3.932102032346386888e+00 3.066693833532884383e+00 3.235996362712614705e+00 1.071949046597563626e+00 -2.090090041787899811e+00 -7.586349036849844574e-02 1.379637615328233036e+00 -1.650532666338241583e+00 2.373784045392766107e+00 1.632141049684658674e+00 2.603694165962118223e+00 -8.278680840951530229e+00 6.236734709838339441e+00 3.248674473448902589e+00 -7.479236870296657180e-02 4.305343452695875595e-01 2.748560928677099002e-01 -4.571828032978440537e-01 -6.987333372818124166e-01 2.364072473729187163e+00 1.057532355759901010e+00 -4.045836846969849687e-01 1.985559263022024235e+00 1.224609852079930672e+00 -3.328903183125466292e+00 -2.229676272393736336e-01 -2.641503269515436347e+00 3.186163237121307112e+00 -1.450264282344942313e+00 -6.707107787664535081e+00 -2.989994220347220732e+00 -6.328179600872839039e+00 1.304732118076818714e-01 6.893992035935097018e-01 6.899725596458706756e-01 -1.164100476839188492e+00 -3.012489317985414417e+00 2.843647016309597486e+00 1.321077136444843259e+00 1.988455868082966038e+00 1.111010791714605261e+00 1.583306540643741434e+00 -2.199629844146643975e+00 -3.379233560109269785e+00 1.852261951268542761e+00 5.411028975102633254e+00 -2.217488213960497223e+00 6.388168584790721027e-01 2.281139477524043446e-01 2.359701083773024344e+00 -7.377940539575043033e-01 -1.561733954896073140e+00 -2.428502267394324399e+00 7.578789992930824726e-02 -1.209826007680486981e+00 -4.185414335824215293e+00 -9.728936895765674109e-01 8.770758659238807597e-01 5.046083476899099196e-01 2.263321216922821844e+00 -3.205003768423958510e-01 -5.566901602919570591e-01 -1.528326066098053770e+00 -1.195803724100367615e+00 3.252172202478642582e+00 -1.639064002628996430e+00 -4.514266170645441223e-01 1.352529444016738358e+00 -1.341200134110354103e+00 -5.040212619455327392e+00 -2.834230093092657971e-02 1.342084593670946902e+00 1.972491373014265914e+00 1.228395544687537866e+00 3.993412049177735290e-01 -1.389318333751325962e+00 -9.751269499670642271e-02 9.488991244507642975e-01 -1.421666927959333249e+00 -1.995168504771325235e+00 -4.845609404635894402e-01 1.860521877967265203e+00 2.877074959713932234e-01 2.620735953344447644e+00 -1.251657859572478104e+00 -1.364423882444687042e+00 3.158644717711351468e+00 -3.208130230126519100e-01 1.074663103318964197e+00 -2.266398313440604717e+00 2.621794219493110312e+00 1.025272207507953004e+00 1.107498150285297411e+00 -3.414573890203050244e+00 -1.044649070974382310e+00 -8.802198111293833005e-01 1.001011790293297121e+00 3.594321269728571799e+00 -1.267620811979154050e-01 -2.737011532321915741e-01 2.471725086211550571e-01 2.871384593727002166e+00 -9.713592550830739691e-01 -1.680401174231865413e+00 -1.139470849180052481e+00 3.889462853995017788e+00 2.694751848828521812e+00 2.019509140411244186e+00 1.065758343894088744e+00 3.152345000224826332e+00 1.732005275827057433e+00 -2.111326841434947976e+00 -2.298675430974820078e+00 2.826875194781518719e+00 -7.942601120325830377e-02 -2.253284143572117648e-01 2.389344363011102423e+00 -2.658946663244755815e+00 1.880625849467809640e+00 2.947044452708294404e+00 -3.872044657078760999e+00 3.600673437723922010e+00 -4.237980544301889752e-01 -3.842524276581952281e-01 8.045378406590762976e-01 -5.862870568251710601e+00 -5.661507408441840639e+00 5.443930356536010429e+00 4.773349058535462319e+00 -2.979598735186206770e+00 -3.314699893867830482e+00 5.068616626867226138e-01 -5.749701910591162868e-01 -1.617548495376227136e+00 2.077265892379978940e+00 -3.258795878990268680e+00 -1.117724971064989026e+00 -2.210166739993218166e-01 5.680837477826866655e-01 -1.587820883947488326e+00 1.858766842804298047e+00 -8.600392207482993046e-02 3.337193963064675195e+00 2.855947689070609030e+00 -3.573041789765518672e-01 1.687556040700521232e+00 -8.819835880438212650e-01 -3.295222243149147801e+00 5.167321285388033481e-01 -3.679378511541162133e+00 2.428150026232111514e-01 -1.154532372743868329e+00 -2.213781197116129196e+00 4.539725236252970531e-01 -8.152043201156906616e-01 1.605248851056564563e+00 6.167609052971263495e+00 3.772502847299438744e-01 -4.014285809028400820e+00 6.307602546351511741e+00 1.932768854330153552e+00 1.591003909924272597e-01 -2.006310124131421180e+00 2.144486361647056416e+00