-8.258892402620547557e+01 -3.067713171414294138e+01 -1.557936425839175243e+00 -3.067713171414294138e+01 -6.367280715929677370e+01 -6.994908974060427553e-01 -1.557936425839175243e+00 -6.994908974060427553e-01 -2.475708445708404071e+01
-4.594452920570893895e+01 -6.318705112679113611e+00 9.435529986430216454e+00 -6.318705112679113611e+00 -4.439953059456431816e+01 -2.170149533727512292e+01 9.435529986430216454e+00 -2.170149533727512292e+01 -7.577454670944685233e+01
-5.450682147360703311e+01 -4.179531792728338502e+01 -2.485944414133406610e+00 -4.179531792728338502e+01 -8.651207633922525986e+01 -1.383835739665770603e+01 -2.485944414133406610e+00 -1.383835739665770603e+01 -1.285652373496803875e+02
-5.920052740564457849e+01 4.887063785372258273e+00 -2.237974120188223992e+01 4.887063785372258273e+00 -8.749735803402904821e+01 2.427527295840205568e+01 -2.237974120188223992e+01 2.427527295840205568e+01 -3.947824581588133697e+01
-4.765943519074683365e+01 -2.389216385489489980e+01 -4.223118892145753023e+01 -2.389216385489489980e+01 -6.399852131799443100e+01 -7.086662648181247803e+00 -4.223118892145753023e+01 -7.086662648181247803e+00 -7.749926226756734593e+01
-1.168643252877491250e+02 1.448007605663867992e+01 -3.361234940992860487e+01 1.448007605663867992e+01 -6.962870741383723328e+01 -3.206148183700925358e+01 -3.361234940992860487e+01 -3.206148183700925358e+01 -1.787207102196060049e+01
-6.369216630543755286e+01 -3.771796427002873742e+01 1.484672900448962096e+01 -3.771796427002873742e+01 -1.711349917263993348e+02 2.631089132981625056e+01 1.484672900448962096e+01 2.631089132981625056e+01 -1.020171986328907110e+02
-1.042723780705384229e+02 -5.629115379419170040e+01 -2.383686824037040708e+01 -5.629115379419170040e+01 -5.432982993246538683e+01 1.583306999109946389e+01 -2.383686824037040708e+01 1.583306999109946389e+01 -8.156567212394402588e+01
-3.300249851525561695e+01 1.723568375020183296e+01 -1.260742536289427917e+01 1.723568375020183296e+01 -1.720985412269374848e+00 -6.478474375060064183e+00 -1.260742536289427917e+01 -6.478474375060064183e+00 -4.465390090632326547e+01
-1.270873468937360542e+02 -3.930025795526084664e+00 -2.525981726510370962e+01 -3.930025795526084664e+00 -5.728968983492610079e+01 -1.807489050725283164e+01 -2.525981726510370962e+01 -1.807489050725283164e+01 -1.178257386297987779e+02
-2.613483024800021681e+01 4.311660437756176378e+01 5.824881920056212969e+00 4.311660437756176378e+01 -1.398361402966152234e+01 1.080523398057291828e+01 5.824881920056212969e+00 1.080523398057291828e+01 2.749135279854594494e+00
-4.870924846064382763e+01 4.194011943967692702e+01 -3.739197189930707310e+01 4.194011943967692702e+01 -2.430014104156096266e+01 2.322959506460408008e+01 -3.739197189930707310e+01 2.322959506460408008e+01 9.839447827656600509e+01
-4.320772098832766517e+01 4.598704975916981397e+01 -1.770893247487473232e+01 4.598704975916981397e+01 -5.358094930943814660e+01 2.454644871324513744e+01 -1.770893247487473232e+01 2.454644871324513744e+01 1.589537198033983856e+00
-1.230340175764404975e+01 -1.260789960693598388e+01 3.730877641679876433e+01 -1.260789960693598388e+01 -2.045460571048723253e+01 -1.392956954565294758e+01 3.730877641679876433e+01 -1.392956954565294758e+01 -3.614000975502380442e+01
5.016039335040455960e+00 2.060240302595613748e+00 -1.735255640778387232e+01 2.060240302595613748e+00 -3.058672296727549167e+01 1.654444190679631177e+01 -1.735255640778387232e+01 1.654444190679631177e+01 -2.672136443524475169e+01
-4.393109654995029700e+01 1.979099758015520649e+01 2.573605855390741226e+01 1.979099758015520649e+01 -4.079149303396816606e+01 -2.852451288731316481e+01 2.573605855390741226e+01 -2.852451288731316481e+01 -3.339541263473167731e+01
-9.400079022761170222e+01 3.704187024259945105e+01 -3.134339991237511924e+01 3.704187024259945105e+01 1.424721409429131391e+01 -2.051288133404763059e+01 -3.134339991237511924e+01 -2.051288133404763059e+01 -7.162701391648835170e+01
-1.582927248718022284e+01 -2.131756437094955459e+01 2.396121587665785313e+01 -2.131756437094955459e+01 -7.284002198827961649e+01 2.384446759683532235e+01 2.396121587665785313e+01 2.384446759683532235e+01 -7.716760997919922715e+01
-4.318437942229936510e+01 -4.570821229075392722e+01 -2.053386324825805787e+01 -4.570821229075392722e+01 -6.768731450936820160e+00 7.681092668199988260e+00 -2.053386324825805787e+01 7.681092668199988260e+00 -4.883903633282549350e+01
-2.693417819948430036e+01 4.148645202416772548e+01 -3.187405826086948579e+01 4.148645202416772548e+01 -6.303137831263916979e+01 2.640656383344040492e+01 -3.187405826086948579e+01 2.640656383344040492e+01 -5.429200096957274013e+01
-5.506133153955133963e+01 -6.140819573162081824e+00 -3.697423860932554263e+00 -6.140819573162081824e+00 -1.726041666763951099e+01 2.872969940337764072e+01 -3.697423860932554263e+00 2.872969940337764072e+01 -5.013433160923739962e+01
-3.414709120794389463e+01 6.696108573858015056e+00 2.289723916365664635e+00 6.696108573858015056e+00 -1.123907770262067061e+02 -1.992055142310704241e+01 2.289723916365664635e+00 -1.992055142310704241e+01 -2.427697287130147785e+01
-4.503016830384967051e+01 -1.569838999865546292e+01 3.067491730833748420e+01 -1.569838999865546292e+01 -1.051054228582945314e+02 2.217539568741824141e+01 3.067491730833748420e+01 2.217539568741824141e+01 -6.834234315952504346e+01
-9.174874510430096564e+01 1.885493551795062928e+01 -2.344597172570100341e+01 1.885493551795062928e+01 -8.219115343625426817e+01 1.101917296511654598e+01 -2.344597172570100341e+01 1.101917296511654598e+01 -1.115434494391771949e+02
-4.187049963402311903e+01 -4.307902586606744855e+00 -1.358442673734763240e+00 -4.307902586606744855e+00 -9.325760872927577338e+01 7.858851301385408661e+00 -1.358442673734763240e+00 7.858851301385408661e+00 -5.176152770671640724e+01
-7.413158629504313524e+01 6.007838467231137791e+00 1.677947202189855602e+01 6.007838467231137791e+00 -1.295900871871478728e+02 -1.473486475006578589e+00 1.677947202189855602e+01 -1.473486475006578589e+00 -8.119937592517401015e+01
-3.905744235744887760e+01 1.957385582537417434e+01 -1.106255331555083377e+00 1.957385582537417434e+01 -1.896039270205816152e+01 -1.588958905046780679e+01 -1.106255331555083377e+00 -1.588958905046780679e+01 -4.093613853558224491e+01
-6.931819286030871297e+01 -3.641396517600816285e+00 -2.084315988342179082e+01 -3.641396517600816285e+00 -7.532077744638175432e+01 -8.565104340686332307e+00 -2.084315988342179082e+01 -8.565104340686332307e+00 -6.113358462656070458e+01
1.033815828584494945e+01 -3.204237092645695384e+01 5.512667661676657893e+00 -3.204237092645695384e+01 -2.756295648944360721e+01 -1.620683758846054801e+01 5.512667661676657893e+00 -1.620683758846054801e+01 6.389382400114365979e+00
-4.554986255143462870e+01 4.438275546230830315e+00 3.008530930045542107e+01 4.438275546230830315e+00 -2.007782336192575912e+01 -6.092699255673389303e+01 3.008530930045542107e+01 -6.092699255673389303e+01 -7.105520272853974006e+01
-1.610273792586506545e+02 -2.339558843342365080e+01 8.416691378356412345e-01 -2.339558843342365080e+01 -8.823616046932319534e+01 -1.866264532712632018e+01 8.416691378356412345e-01 -1.866264532712632018e+01 -8.152889348192552177e+01
-7.822048682900341987e+01 4.507595107115915378e-01 -2.975228515955293140e+00 4.507595107115915378e-01 -4.221449253958395076e+01 4.912787166127816363e+01 -2.975228515955293140e+00 4.912787166127816363e+01 -2.221996988533491546e+01
-6.478357517246566033e+01 -2.417747409313865248e+01 -1.385050992194862651e+01 -2.417747409313865248e+01 -9.479188790216760196e+01 2.429748043392763890e+01 -1.385050992194862651e+01 2.429748043392763890e+01 -1.081091855873338829e+02
-1.265672368978771232e+02 -1.372881399781468126e+01 1.530230526830326632e+01 -1.372881399781468126e+01 -1.212251589149675226e+02 -1.331835372301609866e+01 1.530230526830326632e+01 -1.331835372301609866e+01 -9.237607004924409182e+01
-5.719551325498172645e+01 -2.512503303992237136e+01 -7.389424719314257040e+00 -2.512503303992237136e+01 -4.291817706651733033e+01 8.351971731968369284e+00 -7.389424719314257040e+00 8.351971731968369284e+00 -9.394237014947724163e+01
-4.104234669358610432e+01 2.122977212709287187e+00 -1.922892754888186317e+01 2.122977212709287187e+00 -3.606348672467539984e+01 -1.422204768141831055e+00 -1.922892754888186317e+01 -1.422204768141831055e+00 -1.432949608827075316e+01
-3.860474740449492970e+01 1.680204958595816933e+01 2.439856833895270416e+00 1.680204958595816933e+01 -4.321343503506707862e+01 -1.896709425624240719e+00 2.439856833895270416e+00 -1.896709425624240719e+00 -5.827957813072424642e+01
-8.681281091723231214e+01 1.597935929079011075e+01 -3.240603136833086495e+01 1.597935929079011075e+01 -5.433660258294250411e+01 -5.159005842080673254e+00 -3.240603136833086495e+01 -5.159005842080673254e+00 -7.979423447310736606e+01
8.733482068680713084e+00 -6.123897058217445455e+00 2.074551178904743054e+00 -6.123897058217445455e+00 -3.987624171943329543e+01 -1.965285034826343136e+01 2.074551178904743054e+00 -1.965285034826343136e+01 -7.675961509816637829e+01
-7.040237918420366725e+01 -1.140347122203174024e+01 3.855992153921177135e+01 -1.140347122203174024e+01 -3.317048829970040913e+01 4.609288053626822546e+01 3.855992153921177135e+01 4.609288053626822546e+01 -1.087679529424623297e+02
-2.383692644655923232e+01 -2.941900769086219825e+01 1.410032885736288710e+00 -2.941900769086219825e+01 -2.773968808990646195e+01 -3.581623057413504085e+01 1.410032885736288710e+00 -3.581623057413504085e+01 -1.029937997897508666e+02
-9.742133299575780825e+01 -8.028186411963419644e+00 2.913271353592880430e+01 -8.028186411963419644e+00 -6.376568696950713644e+01 -1.048422307432728218e+01 2.913271353592880430e+01 -1.048422307432728218e+01 -9.951202785428597508e+01
-8.905057630935205282e+01 -1.480216421846477459e+01 -5.852027065680979234e+01 -1.480216421846477459e+01 -9.431813906357841404e+01 1.065248388877946617e+01 -5.852027065680979234e+01 1.065248388877946617e+01 2.558932067392674625e+01
-1.486771063327652485e+02 9.419302781481146525e+00 -4.320112922085518647e+01 9.419302781481146525e+00 -1.414621655561712430e+02 1.800551186764863587e+01 -4.320112922085518647e+01 1.800551186764863587e+01 -1.320855282952645098e+02
-8.683527209859460072e+01 3.413771971616161949e+01 5.926871676293198749e-02 3.413771971616161949e+01 -3.459195034217101750e+01 2.686186731992466292e+01 5.926871676293198749e-02 2.686186731992466292e+01 -6.362758063969697275e+01
-8.162770266349009773e+01 -2.729017417143496260e+01 1.288695157909618949e+01 -2.729017417143496260e+01 -1.058683886417458098e+02 9.489164762307927603e+00 1.288695157909618949e+01 9.489164762307927603e+00 -1.391562524323468892e+02
-1.245253022673111616e+02 1.288203845936254943e+01 1.534161670916798137e+01 1.288203845936254943e+01 -8.101748161170620222e+01 -3.592497921285167983e+00 1.534161670916798137e+01 -3.592497921285167983e+00 -7.661102844815859214e+01
-6.752968033309635132e+01 4.987466518948580330e+01 2.670505033135626860e+01 4.987466518948580330e+01 -8.227518569439615703e+01 3.313839823109312732e+01 2.670505033135626860e+01 3.313839823109312732e+01 -1.348104433997072533e+02
-7.304894996617628067e+01 -1.639998250028196480e+01 1.887716976648382428e+01 -1.639998250028196480e+01 -7.921886528035690844e+01 1.255514228612809369e+01 1.887716976648382428e+01 1.255514228612809369e+01 -3.740509994529736559e+01
1.167891024801750532e+01 -2.918919152673700879e+01 5.147311178777501439e+00 -2.918919152673700879e+01 4.583609503029652643e+00 3.859311397131840682e+00 5.147311178777501439e+00 3.859311397131840682e+00 4.670683376914837481e+00
-5.406230278656606458e+01 1.172232645013551355e+01 -6.601422935847775619e+00 1.172232645013551355e+01 -1.570382729303684499e+01 -1.326773152902569919e+01 -6.601422935847775619e+00 -1.326773152902569919e+01 -5.438279019334861886e+01
-1.169586046850376988e+02 5.639813898287438398e+00 -2.594559302221414754e+01 5.639813898287438398e+00 -9.448954891746336671e+01 1.778483721880033741e+01 -2.594559302221414754e+01 1.778483721880033741e+01 -9.444474302790247577e+01
-5.490190802715182627e+01 2.811813471443977264e+01 -3.871882222699936449e+01 2.811813471443977264e+01 1.873728923841857075e+00 -2.457945762849423943e+01 -3.871882222699936449e+01 -2.457945762849423943e+01 -8.462511299779733065e+01
-6.573576513740491123e+01 1.974558037082802286e+01 9.075706985538515070e+00 1.974558037082802286e+01 -9.379272883355211832e+01 -6.023614227370092777e+01 9.075706985538515070e+00 -6.023614227370092777e+01 -7.794389384178116131e+01
-1.016653230285414935e+02 -3.963313852179661012e+01 -2.037351157960616632e+01 -3.963313852179661012e+01 -1.035055402844152184e+02 -2.980353429958310763e+00 -2.037351157960616632e+01 -2.980353429958310763e+00 -6.315389679254788291e+01
-1.084261729140085038e+02 1.180767064684406620e+01 -7.475762925747027055e+00 1.180767064684406620e+01 -1.775443080193880974e+01 3.013232181497791373e+01 -7.475762925747027055e+00 3.013232181497791373e+01 -7.830547385800122129e+01
-7.512721554346123298e+01 1.694394343950182602e+01 -3.075743195864914981e+01 1.694394343950182602e+01 -8.552082306400679101e+01 -2.315167299125252498e+01 -3.075743195864914981e+01 -2.315167299125252498e+01 -1.522476692249942403e+02
-8.132981982704457380e+01 -1.222187796502760904e+01 -1.788604938517926968e+01 -1.222187796502760904e+01 -6.299156342384709006e+01 1.978595058910088511e+01 -1.788604938517926968e+01 1.978595058910088511e+01 1.273929967325933887e+01
-3.275160448953388936e+01 5.208355203045974946e+01 -2.287383268347263154e+01 5.208355203045974946e+01 -6.555727922818512354e+01 -6.730254414178511446e+00 -2.287383268347263154e+01 -6.730254414178511446e+00 -1.007618049407223282e+02
-1.050277068958848048e+02 3.981347253469397174e+01 -5.131064088818344082e+00 3.981347253469397174e+01 -1.366353580861514772e+01 2.079788915999745580e+00 -5.131064088818344082e+00 2.079788915999745580e+00 -7.038112196580073032e+01
-6.381472493658121437e+01 -3.436318334600012747e+01 1.687203108437323351e+01 -3.436318334600012747e+01 -1.393542409354519123e+02 2.367505693169379644e+00 1.687203108437323351e+01 2.367505693169379644e+00 -1.448514824044993361e+02
-8.009166046500125447e+01 8.615593889972923414e-01 3.407295715347746778e+00 8.615593889972923414e-01 -4.966141710852846103e+01 5.152381564861155994e+01 3.407295715347746778e+00 5.152381564861155994e+01 -1.926969956749741186e+01
-6.317520696189727403e+01 8.885829935042593775e+00 3.156477705919480314e+01 8.885829935042593775e+00 -6.046070621394992628e+01 1.132742888676690463e+01 3.156477705919480314e+01 1.132742888676690463e+01 -5.697108800217554148e+01
-9.216329261054632127e+01 -9.367706240308770305e+00 -2.276776629505508964e+01 -9.367706240308770305e+00 -1.001997896576963996e+02 1.460535349206146627e+01 -2.276776629505508964e+01 1.460535349206146627e+01 -1.180816587196201795e+02
-1.029656189095675103e+02 -2.698129612377010655e+00 -4.598966367817598488e+00 -2.698129612377010655e+00 -1.187061695341305949e+02 1.903712144509736603e+01 -4.598966367817598488e+00 1.903712144509736603e+01 -9.545220997176558342e+01
-5.934555914114265818e+01 -1.705501341072485388e+01 8.966231523757377531e+00 -1.705501341072485388e+01 -9.617368019407741997e+01 -1.017798421551192334e+01 8.966231523757377531e+00 -1.017798421551192334e+01 -1.569120179299455060e+02
4.596075533624759402e+00 4.365191807764045251e+00 2.175502673183325797e+01 4.365191807764045251e+00 -2.970203334209099566e+01 -1.651261268173263019e+01 2.175502673183325797e+01 -1.651261268173263019e+01 -7.073326531330215516e+01
-5.034467266247188633e+01 1.838722952916857833e+00 -2.304537761344345626e+00 1.838722952916857833e+00 -8.227918908413376187e+01 1.564324604327524249e+01 -2.304537761344345626e+00 1.564324604327524249e+01 -4.026669984187805085e+01
-1.263792427390961564e+02 -4.150559295556864470e+01 -1.924497682116734865e+01 -4.150559295556864470e+01 -1.583806518797149288e+01 -6.946331717353247948e-01 -1.924497682116734865e+01 -6.946331717353247948e-01 -1.249822361438752409e+02
-7.378206085065518494e+01 -6.540421883756105004e+00 3.458035508730725383e+01 -6.540421883756105004e+00 1.309943634524295852e+01 -1.137003933432549196e+01 3.458035508730725383e+01 -1.137003933432549196e+01 -3.315045029378605790e+01
1.066540259158430715e+01 1.952636108280915606e+00 8.738887653863852023e+00 1.952636108280915606e+00 -1.193700636070243348e+01 -2.620192006766195547e+01 8.738887653863852023e+00 -2.620192006766195547e+01 -7.445869306817746391e+00
-8.354531569359743060e+01 2.963864694115213538e+01 -3.205205469567482623e+01 2.963864694115213538e+01 -3.361191680972687834e+01 -9.039454514207685421e+00 -3.205205469567482623e+01 -9.039454514207685421e+00 -1.872165086525872013e+01
-6.622413794141648680e+01 -6.297639801135541227e+00 2.933035606377359272e+01 -6.297639801135541227e+00 -1.421009642956073549e+02 -9.368361135784219584e+00 2.933035606377359272e+01 -9.368361135784219584e+00 -7.544998114678618606e+01
-1.000306230208432083e+02 1.114003977376105148e+01 -1.604970632971357603e+01 1.114003977376105148e+01 -1.046414616946044731e+02 3.420522130105427294e+01 -1.604970632971357603e+01 3.420522130105427294e+01 -1.299020881746467069e+02
-2.788401744229527779e+01 -2.493587937786721653e+01 3.584751105594147447e+01 -2.493587937786721653e+01 -7.207974227430219116e+01 -3.923021892351615492e+01 3.584751105594147447e+01 -3.923021892351615492e+01 -8.921476650228061089e+01
-9.730719134938279069e+01 -3.225077356334569156e+00 8.769205401423908697e+00 -3.225077356334569156e+00 -1.346239171883970016e+02 -8.755528497496902318e+00 8.769205401423908697e+00 -8.755528497496902318e+00 -5.280725932274746981e+01
-1.115772148903358669e+02 -2.815748314586988243e+01 -1.272361768835636475e+01 -2.815748314586988243e+01 -7.425517528882592444e+01 2.416328866451636515e+01 -1.272361768835636475e+01 2.416328866451636515e+01 -1.151516543386522784e+02
-5.875310724696724662e+01 -1.868658768059639286e+01 -1.014074473208471971e+01 -1.868658768059639286e+01 -3.525953538280467647e+00 -5.090865297182750382e+00 -1.014074473208471971e+01 -5.090865297182750382e+00 -5.673248530767734366e+01
-1.041531429163319302e+02 1.407157908480545849e+01 -1.815252472176224430e+01 1.407157908480545849e+01 -7.896281108799186654e+01 2.876456640737383808e+01 -1.815252472176224430e+01 2.876456640737383808e+01 -4.886862671847227801e+01
-2.803113442546845846e+01 1.162208684879724174e+01 1.296082969468128177e+01 1.162208684879724174e+01 -3.868543739114475244e+01 1.187338295537253252e+01 1.296082969468128177e+01 1.187338295537253252e+01 9.849667115422967509e-04
-9.231832316900293733e+01 -1.123150294585673237e+01 4.502744584503794556e+01 -1.123150294585673237e+01 -5.949343391054518548e+01 -2.390963756825319475e+00 4.502744584503794556e+01 -2.390963756825319475e+00 -3.055660270809293522e+01
-5.094759236329922913e+01 -2.233226273031708331e+01 2.756938020079171636e+01 -2.233226273031708331e+01 -1.406708765004788120e+02 1.988427480336861342e+00 2.756938020079171636e+01 1.988427480336861342e+00 -1.386745359465759719e+01
-9.973448291544140432e+01 1.975940437410258355e+01 -3.523530654720815392e+01 1.975940437410258355e+01 -2.911488037391575290e+01 -3.953687689516323900e+01 -3.523530654720815392e+01 -3.953687689516323900e+01 -7.975440139418182639e+01
-6.787439749825010438e+01 -9.133567274528868296e+00 4.111947885829138061e-01 -9.133567274528868296e+00 -3.788382934854922723e+01 -1.051876314294581505e+00 4.111947885829138061e-01 -1.051876314294581505e+00 -7.934537405235776930e+01
-5.285275303591420482e+01 6.300743203161366601e+00 1.116270614007367357e+01 6.300743203161366601e+00 -1.262888258036577867e+02 2.268820919523112600e+00 1.116270614007367357e+01 2.268820919523112600e+00 -8.704982757143584138e+01
-9.200060601552434036e+01 -2.204608391670137379e+01 2.042812402168148722e+01 -2.204608391670137379e+01 -1.134181086932500335e+02 4.797002291765194570e+01 2.042812402168148722e+01 4.797002291765194570e+01 -1.324866855500935969e+02
-1.171299685320367558e+02 4.708653251736679479e+00 5.340405066902336184e-01 4.708653251736679479e+00 -5.823127714163095447e+01 -8.504460202759537069e+00 5.340405066902336184e-01 -8.504460202759537069e+00 -6.958875884994905903e+01
-7.794374076190342748e+01 -1.390505254986604911e+01 -1.463775540217683790e+01 -1.390505254986604911e+01 -1.143306367202878278e+02 4.461407007625384580e+01 -1.463775540217683790e+01 4.461407007625384580e+01 -3.631831449162802983e+01
-6.798534478021112193e+01 3.169737274726834286e+01 1.271976514338235908e+01 3.169737274726834286e+01 -5.295036514667258842e+01 -1.423798389454995217e+01 1.271976514338235908e+01 -1.423798389454995217e+01 -7.480502378366692540e+01
-2.011090212972054303e+01 -1.123411559851938968e+01 -3.359550495397767289e+00 -1.123411559851938968e+01 -7.758022249303337503e+01 1.957546480094243790e+01 -3.359550495397767289e+00 1.957546480094243790e+01 -4.681261063786919863e+01
-1.161163132592790106e+02 -4.548717437795476570e+01 1.124693817385437100e+01 -4.548717437795476570e+01 -1.233402671334383527e+01 1.261718677984083214e+01 1.124693817385437100e+01 1.261718677984083214e+01 -6.141106094236686630e+01
-8.651757037718085996e+01 3.107691373957275616e+01 -9.552800826463171191e+00 3.107691373957275616e+01 -1.267864607555233647e+02 1.111208788211285459e+01 -9.552800826463171191e+00 1.111208788211285459e+01 -7.849285645741696271e+01
-1.032670206512778037e+02 1.223704884980389807e+01 2.055339527794033572e+01 1.223704884980389807e+01 2.124153507487084269e+01 1.572899577632400359e+01 2.055339527794033572e+01 1.572899577632400359e+01 -1.788851268374515868e+01
-8.747302247880205073e+01 6.254479877095782570e+01 2.034244521067221356e+01 6.254479877095782570e+01 -3.387354843377270441e+01 1.421653357306920995e+01 2.034244521067221356e+01 1.421653357306920995e+01 -1.278766576083516497e+02
-4.396899454663453355e+01 5.727275975488807624e+00 1.673254033437055455e+01 5.727275975488807624e+00 -5.688989593631285402e+01 -1.704846367235034421e+01 1.673254033437055455e+01 -1.704846367235034421e+01 -2.073421808852706860e+01
-7.504719774175372038e+01 7.036403253672283142e+00 -5.034145477399282242e+01 7.036403253672283142e+00 -7.820905268155520673e+01 3.423746396452744811e+00 -5.034145477399282242e+01 3.423746396452744811e+00 -3.901564637693371651e+01
-8.230146766843350292e+01 6.780109396553672951e+00 2.498795829405428393e+01 6.780109396553672951e+00 -1.381009758399700331e+02 4.080278520117983732e+01 2.498795829405428393e+01 4.080278520117983732e+01 -7.110958952929324539e+01
-5.401362285003054353e+01 2.324974159812428809e+01 1.030831214485328218e+01 2.324974159812428809e+01 -5.662741318804759061e+01 1.811122233534609549e+01 1.030831214485328218e+01 1.811122233534609549e+01 -4.501172634809925199e+01
3.047363317349839118e+00 1.437831351703388272e+01 -6.011608692458764835e+00 1.437831351703388272e+01 -2.341625929859239363e+01 -1.807836020789667586e+01 -6.011608692458764835e+00 -1.807836020789667586e+01 -4.861441538471210322e+01
-1.131465201054144245e+02 -6.635596060097260995e+00 1.275531411115057523e+01 -6.635596060097260995e+00 -6.220817697001006508e+01 1.308146163826899588e+01 1.275531411115057523e+01 1.308146163826899588e+01 -6.518264998695302381e+01
-1.222687905269048514e+01 -9.321385239794032884e+00 -2.520017338623055103e+00 -9.321385239794032884e+00 -1.512984572723639332e+01 3.093334485201729933e+01 -2.520017338623055103e+00 3.093334485201729933e+01 -5.426970905813509916e+01
-6.341381405113130398e+01 -6.573411859429046267e+00 -2.877027934069953474e+01 -6.573411859429046267e+00 -7.280044926043268561e+01 2.424927476090731915e+01 -2.877027934069953474e+01 2.424927476090731915e+01 -1.045482027043811541e+02
-1.117554921987130285e+02 5.159529061469679156e+00 -1.706406314508142286e+00 5.159529061469679156e+00 -2.325437494814031503e+00 1.590184985297889853e+01 -1.706406314508142286e+00 1.590184985297889853e+01 -5.898827165429975139e+01
-4.872255104303212647e+01 2.624495254962689117e+01 1.556338008328172151e+01 2.624495254962689117e+01 -3.612642435348995917e+01 -3.300293267461746893e+01 1.556338008328172151e+01 -3.300293267461746893e+01 -6.095253881590286937e+01
-1.025431145879708339e+02 -2.056376690774127169e+01 -1.720051776057891502e+01 -2.056376690774127169e+01 -4.366633793670749242e+01 -7.876085449214636824e+00 -1.720051776057891502e+01 -7.876085449214636824e+00 -7.686600537216369844e+01
-5.590988568820083771e+01 1.385907441789351502e+01 -2.685291153680931231e+01 1.385907441789351502e+01 -5.716918590381382614e+01 5.074840141892121181e+01 -2.685291153680931231e+01 5.074840141892121181e+01 -1.878883819951791523e+01
-9.612355654822908946e+01 -3.668840214262267807e+00 -2.743896008336042769e+01 -3.668840214262267807e+00 -1.679083048257111344e+01 3.509440382523747815e+01 -2.743896008336042769e+01 3.509440382523747815e+01 1.108860915130580693e+01
-7.073180265520460352e+01 2.523619673310464506e+01 1.892252058926766978e+01 2.523619673310464506e+01 -8.669910255915993957e+01 -1.903903442894489828e+01 1.892252058926766978e+01 -1.903903442894489828e+01 -4.590947229705100341e+01
2.573335990382496874e+01 -2.385640773809704029e+01 -9.340795494443311142e+00 -2.385640773809704029e+01 -4.850872143105654288e+01 -7.192168607690705429e+00 -9.340795494443311142e+00 -7.192168607690705429e+00 -1.345076931968650591e+01
-1.404239626023479275e+02 -4.504704635196060991e+01 1.201129411082929188e+01 -4.504704635196060991e+01 -9.243513163323717663e+01 9.986400193910030865e+00 1.201129411082929188e+01 9.986400193910030865e+00 -3.855728512035845768e+01
-3.963926570124388604e+01 1.644518335275440890e+01 1.729214794191547222e+00 1.644518335275440890e+01 -5.684664796924028707e+01 5.782329505393154712e+00 1.729214794191547222e+00 5.782329505393154712e+00 -6.609422425919403565e+01
-9.319241536310815377e+01 -2.801530230949913047e+00 1.558634124928015297e+01 -2.801530230949913047e+00 -7.680026644928635449e+01 1.976859798259162204e+01 1.558634124928015297e+01 1.976859798259162204e+01 -7.526564735234235570e+01
-1.071601762012755188e+02 1.464767208834054912e+01 7.132521613182042586e+00 1.464767208834054912e+01 -4.061723081315550132e+01 1.770643328825250862e+01 7.132521613182042586e+00 1.770643328825250862e+01 -8.994922582134664424e+01
-5.953313271230027937e+01 2.022245142492245051e+01 -2.566481600977270627e+00 2.022245142492245051e+01 -2.034475118263096505e+01 2.829392483898907074e+01 -2.566481600977270627e+00 2.829392483898907074e+01 -7.175780407834716357e+01
-4.639249847576293462e+01 2.822288033394272233e+01 -3.459427835290357223e+01 2.822288033394272233e+01 -9.981559180385555408e+01 1.405107117002163974e+01 -3.459427835290357223e+01 1.405107117002163974e+01 -1.004156955827942852e+02
-9.414609495967484065e+01 -2.411802464437193549e+01 -1.215130887720035524e+01 -2.411802464437193549e+01 -8.101226118441125834e+01 5.785959424384660821e+00 -1.215130887720035524e+01 5.785959424384660821e+00 -4.722235948641093728e+01
-4.376710920595848364e+01 -8.456896125675434917e+00 -4.325579755206580757e+01 -8.456896125675434917e+00 -7.914318164585405668e+01 1.682293705406736706e+01 -4.325579755206580757e+01 1.682293705406736706e+01 -7.829739030366063446e+01
-5.622821265377339728e+01 2.736350769023761842e+01 -9.402964699992609754e-01 2.736350769023761842e+01 -3.911240577728456458e+01 2.237339664455110899e+00 -9.402964699992609754e-01 2.237339664455110899e+00 3.998669734077898053e+00
-1.790906222533721959e+01 1.363284906561241172e+01 2.847259120452708014e+00 1.363284906561241172e+01 -4.882718744706691183e+01 -2.078365427459952741e+01 2.847259120452708014e+00 -2.078365427459952741e+01 -5.313691757484468070e+01
-4.552802308326501901e+01 -2.471344068697893803e+01 -3.930850038028765425e+00 -2.471344068697893803e+01 -4.818702046296776587e+01 3.619575953849289363e+01 -3.930850038028765425e+00 3.619575953849289363e+01 1.539190804457363804e+01
-3.389092704765573671e+01 -7.172071758193563795e+00 5.537004866012805593e+01 -7.172071758193563795e+00 -1.075471601250002749e+02 -4.509383478870436335e+01 5.537004866012805593e+01 -4.509383478870436335e+01 -7.211713515999450408e+01
-5.113424146759582811e+01 -7.548520984869271366e+00 2.737114279528157468e+01 -7.548520984869271366e+00 -5.549182094937273746e+01 -6.793145426143103016e+00 2.737114279528157468e+01 -6.793145426143103016e+00 -1.016314731601673458e+02
-2.962704661622925784e+01 3.123485243177936965e+01 -2.324279334654278983e+01 3.123485243177936965e+01 -7.771548043635989700e+01 4.801137090866177459e+00 -2.324279334654278983e+01 4.801137090866177459e+00 -6.445555838236694512e+01
-6.024392377102533658e+01 2.162337648714457572e+01 -2.674497181483149788e+01 2.162337648714457572e+01 -9.583400544932624143e+01 8.416429825757287375e+00 -2.674497181483149788e+01 8.416429825757287375e+00 -1.006394128092606906e+02
-4.396700799080121236e+00 -1.885330472482737463e+01 -3.631383748772591957e+01 -1.885330472482737463e+01 -7.292869331625557727e+00 -2.568987290400006529e+01 -3.631383748772591957e+01 -2.568987290400006529e+01 -7.955188829385970450e+01
-9.716028792410095605e+01 1.081784969418431075e+01 -3.270424357785340419e+01 1.081784969418431075e+01 -8.582827214968347107e+01 -4.690308274221043661e+01 -3.270424357785340419e+01 -4.690308274221043661e+01 -8.840341730333487646e+01
-6.588117862250182100e+01 4.192475148840555832e+00 -1.590972541544060537e+00 4.192475148840555832e+00 -8.862326475833829420e+01 1.600228611112842003e+01 -1.590972541544060537e+00 1.600228611112842003e+01 -6.216600103102904029e+01
-7.383751495948244781e+01 -2.065504624962763713e-01 6.050592578487473006e+00 -2.065504624962763713e-01 -6.794880381918964929e+01 -2.483665445308094988e+01 6.050592578487473006e+00 -2.483665445308094988e+01 -4.997454782064176015e+01
-6.536089831390356153e+01 -4.056929708044161309e+00 -3.138959970441158820e+00 -4.056929708044161309e+00 -4.022790907687253537e+01 -2.523193567010323157e+00 -3.138959970441158820e+00 -2.523193567010323157e+00 -7.397555821436006340e+01