-7.774621907226811163e+04
-7.779834614342376881e+04
-7.775515085848694434e+04
-7.778328919817692076e+04
-7.777677338434291596e+04
-7.774993141253870272e+04
-7.776037166475177219e+04
-7.775715679525063024e+04
-7.776064596461779729e+04
-7.778368906014632375e+04
-7.773094015886510897e+04
-7.775687745272599568e+04
-7.772929184169536165e+04
-7.772709084130186238e+04
-7.772754837273254816e+04
-7.773682691079002689e+04
-7.773255993636345374e+04
-7.779515852674109919e+04
-7.780051680691030924e+04
-7.776069481379019271e+04
-7.777138244084929465e+04
-7.776005971861181024e+04
-7.775337342829005502e+04
-7.776491123103530845e+04
-7.775654652775065915e+04
-7.774682714514505642e+04
-7.780467628105661424e+04
-7.772601881043720641e+04
-7.774658903217685292e+04
-7.779730867672471504e+04
-7.776253588268854946e+04
-7.776073920777876629e+04
-7.773556859084959433e+04
-7.777530185679692659e+04
-7.776681276518116647e+04
-7.779624237110043759e+04
-7.776898317084681184e+04
-7.778593875364318956e+04
-7.772108707322126429e+04
-7.772107998837789637e+04
-7.780251682407061162e+04
-7.777219438190248911e+04
-7.774417157680184755e+04
-7.778920566458729445e+04
-7.774960938354187238e+04
-7.779617897808177804e+04
-7.777635696687763266e+04
-7.779540668697023648e+04
-7.775095749657900888e+04
-7.772705855554073059e+04
-7.780029448691368452e+04
-7.776542331193770224e+04
-7.776559262612448947e+04
-7.778319264727139671e+04
-7.779953035206490313e+04
-7.776696666733748862e+04
-7.779363205368925992e+04
-7.775000874330665101e+04
-7.778693044723539788e+04
-7.777655453009573102e+04
-7.777934745734377066e+04
-7.776636871516579413e+04
-7.774470422680927732e+04
-7.778518085971822438e+04
-7.778069420325884130e+04
-7.773669729780308262e+04
-7.780466654649924021e+04
-7.778258107765027671e+04
-7.777318646088815876e+04
-7.774613915485926555e+04
-7.780199624917928304e+04
-7.776737945593752374e+04
-7.777556051124534861e+04
-7.778396830531735031e+04
-7.779687325453315862e+04
-7.779757898451200163e+04
-7.772564042456334573e+04
-7.775124735182512086e+04
-7.772644368796926574e+04
-7.774111209680583852e+04
-7.779406013755394088e+04
-7.779360918314108858e+04
-7.776289031192357652e+04
-7.775786671249828942e+04
-7.776790298760647420e+04
-7.780158266301892581e+04
-7.780172435816829966e+04
-7.774971255078619288e+04
-7.774861459673302306e+04
-7.773404021639165876e+04
-7.778330623100511730e+04
-7.780412116938969120e+04
-7.779270699045729998e+04
-7.778194176861943561e+04
-7.777433227704672026e+04
-7.778273659698982374e+04
-7.779766195601331128e+04
-7.776830859810105176e+04
-7.774849702021777921e+04
-7.773824809300899506e+04
-7.772185861647312413e+04
-7.778673448885329708e+04
-7.778277484339807415e+04
-7.774293538832305057e+04
-7.778353612716196221e+04
-7.774682642348180525e+04
-7.773727884813888522e+04
-7.775311579950700980e+04
-7.773202476751197537e+04
-7.775811791145567258e+04
-7.773018815806659404e+04
-7.776432524001187994e+04
-7.776005456197416061e+04
-7.777948805456598348e+04
-7.772716649988651625e+04
-7.776561487427215616e+04
-7.775090236343626748e+04
-7.773717475338521763e+04
-7.777461570097168442e+04
-7.776647160366171738e+04
-7.776360443103236321e+04
-7.778815485177136725e+04
-7.773593692167520931e+04
-7.774839971159702691e+04
-7.779955340520152822e+04
-7.777883918374152563e+04
-7.779681008977085003e+04
-7.775676732256886316e+04
-7.777143384357415198e+04
-7.774994216959722689e+04
-7.779269845806545345e+04
-7.780093745809259417e+04
-7.777643057172348199e+04
-7.778171213948291552e+04
-7.774940933958794631e+04
-7.777076674979914969e+04
-7.774204660830920329e+04
-7.775131606399259181e+04
-7.773319420429253660e+04
-7.779896872858829738e+04
-7.774249480157032667e+04
-7.776870554069157515e+04
-7.779874324939581857e+04
-7.780425290666399815e+04
-7.775157012713205768e+04
-7.776191413868821110e+04
-7.778808441296906676e+04
-7.777281981799786445e+04
-7.779682449055062898e+04
-7.780145405968432897e+04
-7.779699465014616726e+04
-7.772527235888913856e+04
-7.772920237571853795e+04
-7.776585294963940396e+04
-7.777881966254767030e+04
-7.773154626014166570e+04
-7.777973576527308614e+04
-7.772813013386065722e+04
-7.780213002494562534e+04
-7.776038158368959557e+04
-7.778004493177696713e+04
-7.776734367313652183e+04
-7.775892514552152716e+04
-7.776429484775902529e+04
-7.775234811114825425e+04
-7.774069374664349016e+04
-7.776283013620095153e+04
-7.777681687221334141e+04
-7.773844448174678837e+04
-7.778664193138787232e+04
-7.776809918311749061e+04
-7.777270897741257795e+04
-7.776847763509763172e+04
-7.774522425022817333e+04
-7.772610252881038468e+04
-7.772446343116852222e+04
-7.779042118198101525e+04
-7.777928661749802995e+04
-7.773220447037549457e+04
-7.776829433366651938e+04
-7.778160826548184559e+04
-7.780421863296873926e+04
-7.772486970224523975e+04
-7.778922079786681570e+04
-7.779688108812185237e+04
-7.774771116608809098e+04
-7.780199641091788362e+04
-7.778621789827923931e+04
-7.773639790262190218e+04
-7.773879165109721362e+04
-7.773493229394892114e+04
-7.773213607363650226e+04
-7.779792011203116272e+04
-7.773177878623644938e+04
-7.777916227474728657e+04
-7.779153788133393391e+04
-7.776372329090333369e+04
-7.778281322839959466e+04
-7.772646676636009943e+04
-7.775102480868158455e+04
-7.774404586803950951e+04
-7.775832527929855860e+04
-7.780657241916809289e+04
-7.772929745760625519e+04
-7.776240074690664187e+04
-7.774833205177947821e+04
-7.774637371661596990e+04
-7.775228219450607139e+04
-7.776922647726981086e+04
-7.779487029000300390e+04
-7.778679085141712858e+04
-7.773212618431687588e+04
-7.776003337713815563e+04
-7.779810080100169580e+04
-7.779714657300959516e+04
-7.775115952635509893e+04
-7.776484536332053540e+04
-7.779478343869105447e+04
-7.779213646927192167e+04
-7.778171930201600480e+04
-7.779735836031040526e+04
-7.776770349309736048e+04
-7.772211168621192337e+04
-7.774869295118976152e+04
-7.778262663517908368e+04
-7.778490022740395216e+04
-7.777729611433071841e+04
-7.777039847347600153e+04
-7.779560162637375470e+04
-7.774544291273299314e+04
-7.776720399190206081e+04
-7.775224834718735656e+04
-7.775812679533452319e+04
-7.773199827896832721e+04
-7.772865889094611339e+04
-7.772893189978665032e+04
-7.780015842975678970e+04
-7.776448623623044114e+04
-7.775995089646987617e+04
-7.775221708533706260e+04
-7.773331523286932497e+04
-7.780419477622536942e+04
-7.779746462189844169e+04
-7.780117539759496867e+04
-7.774402975324547151e+04
-7.780371368698374135e+04
-7.778226184262921743e+04
-7.772496383207783219e+04
-7.777570746007560228e+04
-7.777513757746647752e+04
-7.779759522237534111e+04
-7.780700821851976798e+04
-7.776051003750669770e+04
-7.780180903823688277e+04
-7.777369854091263551e+04
-7.778558982248081884e+04
-7.773496059759113996e+04
-7.778342977296658501e+04
-7.780548254978800833e+04
-7.779765657371800626e+04
-7.775709148538726731e+04
-7.780147363931995642e+04
-7.773447617705857556e+04
-7.774646448894822970e+04
-7.772134437452846032e+04
-7.775792545063349826e+04
-7.778325892374740215e+04
-7.780521118657763873e+04
-7.773799944521964062e+04
-7.772748506218531111e+04
-7.776139132008481829e+04
-7.776898808619339252e+04
-7.774351553620919003e+04
-7.776222299113949703e+04
-7.780451925137446960e+04
-7.775343473536273814e+04
-7.780299205455165065e+04
-7.780174230215336138e+04
-7.780215690161735984e+04
-7.778305105387970980e+04
-7.775878449969879875e+04
-7.777521299145391094e+04
-7.779905292462602665e+04
-7.772761519103964383e+04
-7.773227311917368206e+04
-7.772818791976064676e+04
-7.773972055415989598e+04
-7.775927800142974593e+04
-7.776861921883372997e+04
-7.772924853411257209e+04
-7.775410831314491224e+04
-7.777258845718666271e+04
-7.780371220965663088e+04
-7.774956546950529446e+04
-7.776917952579674602e+04
-7.777900036330209696e+04
-7.773588136140431743e+04
-7.778668401301169069e+04
-7.774956471571940347e+04
-7.775309354972798610e+04
-7.778023084561363794e+04
-7.777781908723780361e+04
-7.780978734990405792e+04
-7.780306272882885241e+04
-7.776279653841255640e+04
-7.779837716428613930e+04
-7.774770355590272811e+04
-7.773025998110733053e+04
-7.773537489750079112e+04
-7.778177810089314880e+04
-7.779814396064259927e+04
-7.778398644453714951e+04
-7.776687192268767103e+04
-7.777399605157064798e+04
-7.774834512393361365e+04
-7.776738580827150145e+04
-7.774374670395412249e+04
-7.772864035789854825e+04
-7.774906714779681352e+04
-7.776623458652519912e+04
-7.779846540218366135e+04
-7.774195612430007895e+04
-7.772123265397750947e+04
-7.772513861648569582e+04
-7.777767831661185483e+04
-7.776711421474802773e+04
-7.778119556680739333e+04
-7.779585881264532509e+04
-7.779675756506204198e+04
-7.777688742614531657e+04
-7.774782172387880564e+04
-7.774357480233669048e+04
-7.774731599716524943e+04
-7.778942996203560324e+04
-7.774640793077653507e+04
-7.779976705012533057e+04
-7.779910651014106406e+04
-7.779447040628024843e+04
-7.778510196692793397e+04
-7.773339303146630118e+04
-7.775544377688079840e+04
-7.774801971430209232e+04
-7.775385444532636029e+04
-7.772735229514021194e+04
-7.773935336031301995e+04
-7.773093972565793956e+04
-7.772883652701655228e+04
-7.772364603927666030e+04
-7.775970630975185486e+04
-7.774753197424410610e+04
-7.774382473011089314e+04
-7.779582627622113796e+04
-7.775626658781275910e+04
-7.779581427766212437e+04
-7.776633196492600837e+04
-7.776273124314205779e+04
-7.774260308014244947e+04
-7.776551804693791200e+04
-7.778392964616802055e+04
-7.779630297504283953e+04
-7.778379506198024319e+04
-7.780073951346213289e+04
-7.776197838565072743e+04
-7.774741700870441855e+04
-7.778755087327207730e+04
-7.771969447224707983e+04
-7.779580022929448751e+04
-7.778139202494590427e+04
-7.774792514071994810e+04
-7.776604590708798787e+04
-7.774256172134258668e+04
-7.773397990088390361e+04
-7.776995254130977264e+04
-7.773189225225138944e+04
-7.780233662782728788e+04
-7.773175048797630006e+04
-7.775962231603435066e+04
-7.779605329952295870e+04
-7.774969314902488259e+04
-7.774733019716000126e+04
-7.776743126262762235e+04
-7.774798448880059004e+04
-7.779747366637464438e+04
-7.778544063462996564e+04
-7.774051400048662617e+04
-7.774498445254117541e+04
-7.774512532987096347e+04
-7.777969637084615533e+04
-7.777742094299093878e+04
-7.772859289810576593e+04
-7.779784349831179134e+04
-7.775381948289330467e+04
-7.774508707255191985e+04
-7.773532821350626182e+04
-7.773621888655601651e+04
-7.775288575987021613e+04
-7.778043590051202045e+04
-7.780219451791084430e+04
-7.778590047891244467e+04
-7.773119422388076782e+04
-7.776424706111144042e+04
-7.773759784075451898e+04
-7.772318151112183114e+04
-7.780023771049542120e+04
-7.772951448598287243e+04
-7.772468468271898746e+04
-7.775428727688257641e+04
-7.778996812629771011e+04
-7.778347007752557693e+04
-7.774508528074533388e+04
-7.777717688587600423e+04
-7.778882588299521012e+04
-7.774665246169343300e+04
-7.774972406052968290e+04
-7.773058058275350777e+04
-7.780652037626340461e+04
-7.773315735349970055e+04
-7.778396137174857722e+04
-7.775309278749780788e+04
-7.772407965636745212e+04
-7.776826309602028050e+04
-7.774363119275594363e+04
-7.771739766645152122e+04
-7.776722291451945785e+04
-7.779666253613398294e+04
-7.777830519552784972e+04
-7.773663326532105566e+04
-7.776331116163224215e+04
-7.776417127520125359e+04
-7.776560495311323029e+04
-7.778311389789286477e+04
-7.773891146402148297e+04
-7.777901143367796612e+04
-7.776259591177891707e+04
-7.777887051494521438e+04
-7.775944705549486389e+04
-7.779898647559534584e+04
-7.779556629916961538e+04
-7.776006510701186198e+04
-7.775613300179743965e+04
-7.772159388430033869e+04
-7.779895468710323621e+04
-7.773373670260378276e+04
-7.774526227103457495e+04
-7.776017776523994689e+04
-7.773001867985246645e+04
-7.779676144232298248e+04
-7.777850958432441985e+04
-7.778594183268261258e+04
-7.780662460269503936e+04
