7.684263386574431252e+02 -2.593073735349841158e+01 -2.649471218233863112e+01 -2.593073735349841158e+01 7.945766937054411301e+02 3.653182493282199061e+01 -2.649471218233863112e+01 3.653182493282199061e+01 8.012963440242289153e+02
6.109155625562308387e+02 3.749893736827112889e+01 -2.208610534497859490e+00 3.749893736827112889e+01 5.794069434349044059e+02 4.913075941377379507e+01 -2.208610534497859490e+00 4.913075941377379507e+01 5.894981820916086690e+02
8.363834198091921053e+02 -6.150486174760649760e+01 -2.428982827356405494e+01 -6.150486174760649760e+01 7.958374845362791348e+02 5.183042671363850928e+01 -2.428982827356405494e+01 5.183042671363850928e+01 8.208388743531928640e+02
7.093569217746411368e+02 -9.073416053357746591e+00 -6.072738545564789092e+00 -9.073416053357746591e+00 6.585445348056441617e+02 -1.946374492371203146e+01 -6.072738545564789092e+00 -1.946374492371203146e+01 6.656227235666985962e+02
6.375155492488379423e+02 -8.691356010926329034e+00 1.817539825273675191e+01 -8.691356010926329034e+00 6.810407212262674648e+02 1.415670912098799228e+01 1.817539825273675191e+01 1.415670912098799228e+01 7.400653713517223196e+02
7.536774689250112260e+02 -5.541742194068628891e+01 1.618256580016134594e+00 -5.541742194068628891e+01 7.933037841402860977e+02 -1.804049879789705457e+01 1.618256580016134594e+00 -1.804049879789705457e+01 8.668139946890014471e+02
6.875124896341542353e+02 -2.685026803971043918e+01 1.124946871953822125e+01 -2.685026803971043918e+01 8.337457404719068563e+02 -1.197932018125617581e+01 1.124946871953822125e+01 -1.197932018125617581e+01 7.536485899775394728e+02
7.314818532708778775e+02 4.367775881594979381e+01 -3.402310842479419506e+01 4.367775881594979381e+01 7.344357702177336478e+02 -7.748722487903757505e-01 -3.402310842479419506e+01 -7.748722487903757505e-01 7.844403588342911462e+02
7.218678440534670244e+02 2.467529924866952129e+01 -2.067777604453486617e+01 2.467529924866952129e+01 7.441006851691201973e+02 -6.184309304183420863e+01 -2.067777604453486617e+01 -6.184309304183420863e+01 7.428845443861996500e+02
6.765969851367138972e+02 -1.237372788014584657e+01 1.594640954025553903e+01 -1.237372788014584657e+01 7.415015954799013116e+02 6.139191265106877182e+01 1.594640954025553903e+01 6.139191265106877182e+01 6.183776091263389389e+02
8.842912233718593598e+02 1.350311592835362617e+01 3.942561760906156110e+01 1.350311592835362617e+01 8.431325341253661918e+02 3.651358875385486868e+01 3.942561760906156110e+01 3.651358875385486868e+01 9.114198827434536270e+02
8.327483498706218370e+02 -7.633218426009641400e-01 -3.991781420412019088e+01 -7.633218426009641400e-01 7.753295568600772185e+02 2.079445537799275456e+01 -3.991781420412019088e+01 2.079445537799275456e+01 8.393861673573470625e+02
8.525370458630928852e+02 3.371538938138344577e+01 -3.539868294523785153e+01 3.371538938138344577e+01 8.776873222591424337e+02 -3.310630270771326167e+01 -3.539868294523785153e+01 -3.310630270771326167e+01 9.249908289453284169e+02
8.959063292780938355e+02 2.556554130529443114e+01 -3.573550917828703266e+00 2.556554130529443114e+01 9.093985168941326265e+02 3.065689383400914636e+01 -3.573550917828703266e+00 3.065689383400914636e+01 8.769246972481413422e+02
9.563245965507575193e+02 -5.630406614696505940e+00 2.200432460396902457e+01 -5.630406614696505940e+00 9.511320261625787680e+02 7.360176733351700307e+01 2.200432460396902457e+01 7.360176733351700307e+01 8.266821277719742511e+02
8.597437662368269002e+02 -1.971319518146941618e+01 -1.160723829872815038e+01 -1.971319518146941618e+01 9.101588725556611053e+02 -4.168168423870917394e+01 -1.160723829872815038e+01 -4.168168423870917394e+01 8.603459543883786864e+02
8.333709881499495395e+02 4.063062735633587153e+01 -5.289885843091232331e+00 4.063062735633587153e+01 8.673542686727652153e+02 2.129213667579790936e+01 -5.289885843091232331e+00 2.129213667579790936e+01 8.432134244872296449e+02
5.683525245086857467e+02 1.098242993559801839e+01 -2.585033478043637345e+01 1.098242993559801839e+01 6.043953508533516015e+02 3.230703565653204601e-01 -2.585033478043637345e+01 3.230703565653204601e-01 6.004681546254323621e+02
5.761381773937916932e+02 -2.831303451942959981e+01 4.100105216877617664e+01 -2.831303451942959981e+01 6.328061992253470862e+02 -3.153618878311985618e+00 4.100105216877617664e+01 -3.153618878311985618e+00 5.886011121095921226e+02
7.801957376679733898e+02 1.530150407554079983e+01 2.507929443486507282e+01 1.530150407554079983e+01 7.181473417289653298e+02 1.674180421882876857e+01 2.507929443486507282e+01 1.674180421882876857e+01 7.790480305915583585e+02
7.063976161019144229e+02 6.709536428950242737e+01 -4.368332369430601858e+01 6.709536428950242737e+01 8.010600107949315998e+02 -1.648130262877197438e+01 -4.368332369430601858e+01 -1.648130262877197438e+01 7.286252322636978533e+02
7.586229707236420836e+02 2.233972895809318970e+01 3.429807571861521609e+01 2.233972895809318970e+01 7.656175667347930585e+02 1.694452877528793167e+01 3.429807571861521609e+01 1.694452877528793167e+01 7.800845560491236483e+02
7.980080343183810783e+02 3.894509232406348787e+01 -2.801919345973291087e+01 3.894509232406348787e+01 8.458913226907950502e+02 2.597681600396760615e+01 -2.801919345973291087e+01 2.597681600396760615e+01 8.055559107268318257e+02
7.404792776174188020e+02 4.683277629160777167e+01 2.451827444241797771e+00 4.683277629160777167e+01 7.431853648026238943e+02 4.445845787150135209e+01 2.451827444241797771e+00 4.445845787150135209e+01 7.633186102345300696e+02
7.983282299011370924e+02 1.494836742180852163e+01 -1.264942385647794865e+01 1.494836742180852163e+01 7.407579711858579685e+02 1.554735874054543565e+01 -1.264942385647794865e+01 1.554735874054543565e+01 7.505537564225770666e+02
8.315090355054981046e+02 3.946986119313319819e+01 2.083668160983693340e+01 3.946986119313319819e+01 8.601772181226491512e+02 4.327559737729006883e+01 2.083668160983693340e+01 4.327559737729006883e+01 8.134931157498184575e+02
6.302659014189929394e+02 1.521633887848267186e+01 -3.306175867153761061e+01 1.521633887848267186e+01 5.687789696212615809e+02 -3.975719150592686990e+00 -3.306175867153761061e+01 -3.975719150592686990e+00 6.262077255657393380e+02
9.229852052635446853e+02 9.681997296062954561e+00 -5.520020644162630674e+01 9.681997296062954561e+00 8.654779542886830086e+02 -2.437744983900291729e+01 -5.520020644162630674e+01 -2.437744983900291729e+01 8.783631136348302562e+02
7.400241851945477265e+02 6.147139631026097106e+01 1.102289410974680450e+01 6.147139631026097106e+01 8.800537680142301724e+02 1.885077516568200906e+01 1.102289410974680450e+01 1.885077516568200906e+01 8.170504249886619164e+02
5.961281359469010113e+02 1.538277091193427637e+01 -3.326474269452955213e+01 1.538277091193427637e+01 5.508994830749026050e+02 -4.132047851569398489e+01 -3.326474269452955213e+01 -4.132047851569398489e+01 6.362932382884810067e+02
7.251895079432629245e+02 -1.558328442011292303e+01 1.409349388261853875e+01 -1.558328442011292303e+01 6.917910185290497793e+02 9.314723933554143465e-02 1.409349388261853875e+01 9.314723933554143465e-02 8.083828406413335870e+02
7.257245838257491641e+02 -2.329179070042207655e+01 -5.331973477672176998e+00 -2.329179070042207655e+01 7.557872100466602205e+02 -5.277632914278412635e+00 -5.331973477672176998e+00 -5.277632914278412635e+00 8.359273106499661026e+02
8.815725295296056174e+02 2.783519375596512191e+01 -8.581160889716463736e-01 2.783519375596512191e+01 8.383670423516534811e+02 1.984731263073997809e+01 -8.581160889716463736e-01 1.984731263073997809e+01 8.076412647504620281e+02
6.489758559805442246e+02 1.605376427096982184e+01 -3.180644611867716876e+01 1.605376427096982184e+01 6.787377868230156537e+02 -2.100184333987016316e+01 -3.180644611867716876e+01 -2.100184333987016316e+01 7.168598576120061807e+02
7.324058108204102382e+02 7.740999111065478999e+00 2.134095186952781731e+01 7.740999111065478999e+00 7.717640530124998577e+02 -1.877965014983444902e+01 2.134095186952781731e+01 -1.877965014983444902e+01 7.518517185970164292e+02
5.441010436600171261e+02 -8.090846007429098208e+00 -4.423274531132881293e+01 -8.090846007429098208e+00 6.234364100141467588e+02 -2.946374984738689307e+01 -4.423274531132881293e+01 -2.946374984738689307e+01 6.605056085147058411e+02
7.751644661334789816e+02 -2.542683055841786199e+01 -2.291520835169426062e-01 -2.542683055841786199e+01 7.286261601478553303e+02 3.464447431832236646e+01 -2.291520835169426062e-01 3.464447431832236646e+01 6.729390442308090314e+02
6.422683959945226206e+02 -7.294400209817492708e+00 -5.219636937844601476e+00 -7.294400209817492708e+00 6.402088402659431949e+02 3.377991624484484845e+01 -5.219636937844601476e+00 3.377991624484484845e+01 6.971812161847516336e+02
9.528428696255048180e+02 4.669034963718824649e+00 1.103442955940560077e+00 4.669034963718824649e+00 9.163361493250906733e+02 -1.346954481054047470e+00 1.103442955940560077e+00 -1.346954481054047470e+00 8.787723926073995244e+02
8.744294460318624260e+02 1.842364752459195509e+00 -2.707476057936758096e+01 1.842364752459195509e+00 8.863432734337197871e+02 -1.432831110273348152e+01 -2.707476057936758096e+01 -1.432831110273348152e+01 9.402237112943603279e+02
5.722652394722326790e+02 4.310931887538828278e+00 -3.592883518645042784e+01 4.310931887538828278e+00 5.889366560841446017e+02 3.396491564244340822e+01 -3.592883518645042784e+01 3.396491564244340822e+01 6.103489164708643102e+02
7.808818328839487322e+02 -2.544341072821518779e+01 -3.303791681602382369e+01 -2.544341072821518779e+01 7.550691072561595547e+02 1.673362449836092480e+01 -3.303791681602382369e+01 1.673362449836092480e+01 6.872667750416035233e+02
8.388946765844777929e+02 -1.011037975349207052e+01 -6.042557061908547134e+00 -1.011037975349207052e+01 7.993248870125421490e+02 -2.268752766363591533e+01 -6.042557061908547134e+00 -2.268752766363591533e+01 8.586610548536290253e+02
5.951195769167393337e+02 1.199843776121504924e+01 -8.424383511211509301e+00 1.199843776121504924e+01 6.927617462917513649e+02 9.827536639910572802e+00 -8.424383511211509301e+00 9.827536639910572802e+00 6.544097533715710142e+02
8.170776024990892665e+02 2.285938531712086608e+00 -5.810909626920716775e+00 2.285938531712086608e+00 8.049477819973343458e+02 -1.959780757749575031e+01 -5.810909626920716775e+00 -1.959780757749575031e+01 8.517222096450584559e+02
6.151136972564265761e+02 3.318815154272371615e+01 -1.517985016065251180e+01 3.318815154272371615e+01 5.652295432120365604e+02 -4.205996380583228245e+01 -1.517985016065251180e+01 -4.205996380583228245e+01 6.043514125817036984e+02
6.979003684609233460e+02 -7.844571940173826974e+00 -1.394906547154968735e+01 -7.844571940173826974e+00 6.623348832139897695e+02 4.385565270675396476e+00 -1.394906547154968735e+01 4.385565270675396476e+00 6.788890484755382886e+02
6.351666023446100553e+02 4.121169839335232865e+01 1.982499221072334095e+01 4.121169839335232865e+01 5.764440619912347756e+02 2.575761844244360432e+01 1.982499221072334095e+01 2.575761844244360432e+01 6.222483901293305735e+02
8.133498537712818006e+02 -4.208714517022575308e+01 -2.590059146209693708e+01 -4.208714517022575308e+01 8.045358284189370579e+02 -1.307020964179570655e+01 -2.590059146209693708e+01 -1.307020964179570655e+01 8.099248923338043369e+02
9.212263611740690976e+02 4.693470380265196695e+01 2.945059692973601884e+01 4.693470380265196695e+01 8.825247480563360796e+02 -3.339838390950021108e+01 2.945059692973601884e+01 -3.339838390950021108e+01 8.627427555710603428e+02
5.437256011156855493e+02 1.600237721918486855e+01 -5.623911114585206761e+00 1.600237721918486855e+01 6.106350871492186343e+02 -9.149308223156305431e+00 -5.623911114585206761e+00 -9.149308223156305431e+00 6.254118799610376982e+02
7.477375009947216995e+02 3.170074448383537202e+01 -6.174685079867595050e+01 3.170074448383537202e+01 7.858628425064526937e+02 2.803623417197812273e+01 -6.174685079867595050e+01 2.803623417197812273e+01 7.752828598406243827e+02
7.730424838762182844e+02 -2.397256093855437342e+01 -1.186480708525839134e+01 -2.397256093855437342e+01 7.251266733333783350e+02 7.280522878284381605e+00 -1.186480708525839134e+01 7.280522878284381605e+00 7.655081816656781939e+02
6.096468832402463249e+02 1.450208184858770366e+01 -6.785780041585877775e+00 1.450208184858770366e+01 7.092939704128634730e+02 -2.721032895422422371e+01 -6.785780041585877775e+00 -2.721032895422422371e+01 6.291425336709203293e+02
6.121625216613717839e+02 -1.529240033331366178e+01 4.233197602782087898e+01 -1.529240033331366178e+01 5.895027951324880178e+02 3.293245034528332837e+01 4.233197602782087898e+01 3.293245034528332837e+01 5.987706529311935810e+02
7.622533024139519284e+02 1.821230711928992818e+01 -1.149331056216270142e+01 1.821230711928992818e+01 7.755539268614566026e+02 -3.532510103656299805e+01 -1.149331056216270142e+01 -3.532510103656299805e+01 7.461553425799544357e+02
6.147710217124749761e+02 1.919449609008876223e+01 6.059776716458782353e+00 1.919449609008876223e+01 5.999560932177054156e+02 2.313469801561612638e+00 6.059776716458782353e+00 2.313469801561612638e+00 6.223332689493526004e+02
8.479081542009204213e+02 -2.341603221016890046e+01 -1.323207236494592998e+01 -2.341603221016890046e+01 7.886567309113415831e+02 5.383430836337596226e+00 -1.323207236494592998e+01 5.383430836337596226e+00 8.018247530737924080e+02
6.651665113771590541e+02 8.394933797538865150e+00 -2.850796116592570328e+01 8.394933797538865150e+00 6.874514085635544234e+02 -4.076143094742621997e+01 -2.850796116592570328e+01 -4.076143094742621997e+01 6.723949720435422250e+02
7.081606033072595210e+02 2.502833943177316112e+00 7.267902072315288819e+01 2.502833943177316112e+00 6.779312600104377680e+02 -8.445220070775478760e+00 7.267902072315288819e+01 -8.445220070775478760e+00 7.012767491736163947e+02
6.796022723177341049e+02 7.989038471230398564e-01 -1.360817875764194440e+00 7.989038471230398564e-01 6.849849764025963168e+02 -2.720011386890677585e+01 -1.360817875764194440e+00 -2.720011386890677585e+01 7.223214586046400427e+02
6.965642014769741763e+02 3.529914522003133470e+01 4.649187945363141239e+01 3.529914522003133470e+01 7.255049872327771254e+02 -1.966083679091188330e+01 4.649187945363141239e+01 -1.966083679091188330e+01 7.709108468812179353e+02
8.149149343036070832e+02 9.688878794312456577e+00 2.185181990194545421e+01 9.688878794312456577e+00 7.893223536217806213e+02 -6.889876331633884021e+00 2.185181990194545421e+01 -6.889876331633884021e+00 8.382218241750840662e+02
6.331794474901888634e+02 4.441145489075604580e+00 -4.908798439542226277e-01 4.441145489075604580e+00 6.812207380034758444e+02 7.276471134055308987e+00 -4.908798439542226277e-01 7.276471134055308987e+00 7.130868750041344128e+02
6.838015447116648602e+02 5.723937401441309802e+00 1.031445877342641779e+02 5.723937401441309802e+00 6.879243902186577770e+02 4.478126234153855911e+00 1.031445877342641779e+02 4.478126234153855911e+00 6.520558916655353414e+02
9.162461519471814881e+02 -4.466967644802582460e-01 -3.627792716416250585e+01 -4.466967644802582460e-01 8.497077597910047189e+02 4.529224222886312390e+01 -3.627792716416250585e+01 4.529224222886312390e+01 9.178834756327181594e+02
5.957032007931295539e+02 -1.113477250814593766e+01 4.505784454182228416e+01 -1.113477250814593766e+01 5.788432156278212233e+02 9.202282796807638166e-01 4.505784454182228416e+01 9.202282796807638166e-01 5.725751848839446438e+02
6.856659726795982124e+02 -1.743981007969178876e+01 4.065161177241891011e+01 -1.743981007969178876e+01 6.645802124970589375e+02 4.635303704084239484e+01 4.065161177241891011e+01 4.635303704084239484e+01 6.556426772803979475e+02
6.780379903195638462e+02 3.689025527921234726e+01 -1.144149977962862508e+01 3.689025527921234726e+01 7.144459677378872584e+02 5.727717207006671174e+01 -1.144149977962862508e+01 5.727717207006671174e+01 6.831530615830706665e+02
8.271863299634665054e+02 4.644121384932765295e+01 2.536246367877909336e+01 4.644121384932765295e+01 7.924339098942477904e+02 -3.314042805989973317e+01 2.536246367877909336e+01 -3.314042805989973317e+01 7.993573616619539735e+02
5.625147380627246321e+02 5.406270046142901009e+01 -2.733106150249289001e+01 5.406270046142901009e+01 6.585381415012549269e+02 -1.973485205035624546e+01 -2.733106150249289001e+01 -1.973485205035624546e+01 6.032092505917465814e+02
7.956653452796576858e+02 7.001633454922558286e+00 -3.349869598154459993e+01 7.001633454922558286e+00 7.596178217848440681e+02 -1.892067938431930685e+01 -3.349869598154459993e+01 -1.892067938431930685e+01 7.439927442685258256e+02
6.431948648022085990e+02 -2.008422283497846195e+01 -2.937240319279950285e+01 -2.008422283497846195e+01 6.895963584922870950e+02 -1.187103339403465974e+01 -2.937240319279950285e+01 -1.187103339403465974e+01 6.442178622818997837e+02
6.780466769864309526e+02 -3.384443122756799482e+01 -3.963943184417977506e+01 -3.384443122756799482e+01 6.511085683759577023e+02 -4.614594919891627178e+00 -3.963943184417977506e+01 -4.614594919891627178e+00 6.578582051387301135e+02
6.265046544193204454e+02 -2.349413536673644831e+00 3.826211098414342260e+00 -2.349413536673644831e+00 6.033393645128013532e+02 -1.705077342429843057e+01 3.826211098414342260e+00 -1.705077342429843057e+01 6.391156119917325213e+02
5.549293940639179255e+02 5.444890371275776353e+00 9.407942376267781626e+00 5.444890371275776353e+00 5.643946901419207052e+02 -1.039370352638282924e+01 9.407942376267781626e+00 -1.039370352638282924e+01 6.205601056226051924e+02
9.115310935722649219e+02 2.273961629808115603e+01 2.296331758505168708e+01 2.273961629808115603e+01 8.555150234535526579e+02 -1.204409430468833442e+01 2.296331758505168708e+01 -1.204409430468833442e+01 9.157052708619457917e+02
8.801859363728550534e+02 8.199636793603303886e+00 -3.297007109339640607e+01 8.199636793603303886e+00 8.496287476232890867e+02 -1.926243812189806448e+01 -3.297007109339640607e+01 -1.926243812189806448e+01 8.011362727889518283e+02
8.748012336439697947e+02 1.332476761521597908e+01 -2.178924363220865601e+01 1.332476761521597908e+01 8.805795143709274271e+02 6.890089458233396158e+01 -2.178924363220865601e+01 6.890089458233396158e+01 8.988100929816043845e+02
7.519921866854521113e+02 2.491459992739954288e+01 3.889997946542675322e+01 2.491459992739954288e+01 8.897876118319210264e+02 -2.771326710318255593e+01 3.889997946542675322e+01 -2.771326710318255593e+01 8.416019861595258362e+02
6.071020168016793832e+02 -2.320207187218744949e+01 8.658956019021516681e+00 -2.320207187218744949e+01 5.756625361792850981e+02 -3.714911489626581442e+01 8.658956019021516681e+00 -3.714911489626581442e+01 6.060951024753173897e+02
5.770272681373450041e+02 -2.991101914899802594e+00 -7.424479868070900324e+00 -2.991101914899802594e+00 5.559815802391717625e+02 3.054819982145956203e+01 -7.424479868070900324e+00 3.054819982145956203e+01 6.640745886695656282e+02
7.240901720360218405e+02 9.990933503210186473e+00 -3.621010516677756641e+01 9.990933503210186473e+00 7.572111162034041172e+02 2.160602310463654518e+01 -3.621010516677756641e+01 2.160602310463654518e+01 7.407752944714125078e+02
8.277163596474480300e+02 -4.038639188640784994e+01 -4.008272839962191370e+01 -4.038639188640784994e+01 8.487609007212640790e+02 4.765373369041967067e+00 -4.008272839962191370e+01 4.765373369041967067e+00 7.751085578324569951e+02
8.048748991905839603e+02 1.169015576529472256e+01 -4.028914020982944777e+01 1.169015576529472256e+01 7.200619070017509102e+02 3.750938391129633231e+01 -4.028914020982944777e+01 3.750938391129633231e+01 7.736639623670841956e+02
5.851796542615384169e+02 2.788173100465053622e+01 -8.637037588645512187e+00 2.788173100465053622e+01 5.897686687168142043e+02 -4.605054671582237802e+01 -8.637037588645512187e+00 -4.605054671582237802e+01 5.951504007524142708e+02
5.941975281967088449e+02 2.162052070975111917e+01 3.093131916459332587e+01 2.162052070975111917e+01 5.507653697987415171e+02 1.626594432623546194e+00 3.093131916459332587e+01 1.626594432623546194e+00 5.913853587061432791e+02
7.822337473572475801e+02 -1.971494649808650479e+01 -3.369425494103267482e+01 -1.971494649808650479e+01 7.904684964585239868e+02 -2.592770809410539812e+01 -3.369425494103267482e+01 -2.592770809410539812e+01 8.404989222063143188e+02
8.281832800586353187e+02 3.586821837693841530e+01 -3.395712954304453035e+01 3.586821837693841530e+01 7.791396542058497516e+02 -2.863520314157695879e+01 -3.395712954304453035e+01 -2.863520314157695879e+01 8.358220485985643791e+02
8.469691847380021272e+02 1.278737545889430649e+01 4.109062521634962550e+00 1.278737545889430649e+01 8.650493123119193797e+02 -2.725979428198015597e+01 4.109062521634962550e+00 -2.725979428198015597e+01 9.171425239443748296e+02
6.636367605483685566e+02 -1.439663668793005158e+01 4.290551243711907858e+01 -1.439663668793005158e+01 7.415238460146229045e+02 1.001178351836452229e+01 4.290551243711907858e+01 1.001178351836452229e+01 6.639023352043097930e+02
5.395471592969826133e+02 2.807839731788326909e-01 1.038988190442205140e+00 2.807839731788326909e-01 6.376224393701725148e+02 -9.225677993279324252e-01 1.038988190442205140e+00 -9.225677993279324252e-01 5.815070341455623293e+02
6.022472077052735813e+02 2.178486814149576034e+01 -3.058171567710204286e+01 2.178486814149576034e+01 6.558727084479404539e+02 3.628963933432947897e+01 -3.058171567710204286e+01 3.628963933432947897e+01 5.838121374136214854e+02
7.313267911546407731e+02 4.966261364541547429e+00 -1.040521850584843122e+01 4.966261364541547429e+00 6.541352762985471827e+02 1.587074192146140028e+01 -1.040521850584843122e+01 1.587074192146140028e+01 6.266032548220362060e+02
6.767849535357418063e+02 8.055860783938429748e+00 2.841894574804560314e+00 8.055860783938429748e+00 6.456177796294085738e+02 3.227373308467227275e+01 2.841894574804560314e+00 3.227373308467227275e+01 7.383678747777797753e+02
6.484125751733107563e+02 2.742582720058513246e+01 -1.803622335107463215e+01 2.742582720058513246e+01 7.121110296330598430e+02 3.194072439617000114e+01 -1.803622335107463215e+01 3.194072439617000114e+01 6.739948776652552169e+02
5.605734610074680404e+02 -1.000611759665347300e+01 2.904919914275690740e+00 -1.000611759665347300e+01 6.389929130448400656e+02 -2.253106641535162424e+01 2.904919914275690740e+00 -2.253106641535162424e+01 6.510419428368423951e+02
7.424747096952684160e+02 -2.668802347692524002e+00 1.830032104216510902e+01 -2.668802347692524002e+00 7.349940597408881331e+02 4.208669887664019171e+01 1.830032104216510902e+01 4.208669887664019171e+01 7.873789834254922653e+02
8.241927148827710425e+02 -1.873706079264608348e+01 2.039945478660663625e+01 -1.873706079264608348e+01 7.674659712357038188e+02 2.403910653805909092e+01 2.039945478660663625e+01 2.403910653805909092e+01 8.512844159144195828e+02
8.852461597516685288e+02 2.642144055460254037e+01 -3.585326576771590368e+01 2.642144055460254037e+01 8.862944994104867646e+02 -1.925032274204835048e+01 -3.585326576771590368e+01 -1.925032274204835048e+01 8.836003567701026213e+02
8.503969194045356517e+02 2.719327266059445591e+01 -4.561873185901139038e+01 2.719327266059445591e+01 9.075991599168141875e+02 5.981154407262644668e+01 -4.561873185901139038e+01 5.981154407262644668e+01 9.212490501492666226e+02
7.456205855602530619e+02 -7.920022127807452295e-01 -2.161251832055175015e+01 -7.920022127807452295e-01 6.459812937908804997e+02 1.195794560611581581e+01 -2.161251832055175015e+01 1.195794560611581581e+01 6.293179049062794093e+02
6.946246513675007463e+02 -2.555627922723881440e+01 5.840140030353822453e+00 -2.555627922723881440e+01 6.559329547438178452e+02 2.874606722649340540e+01 5.840140030353822453e+00 2.874606722649340540e+01 6.260220830109792587e+02
8.538520285890630248e+02 -6.484752371841164820e-01 3.791516102137815381e+01 -6.484752371841164820e-01 8.407420707332065604e+02 -8.004637448044425341e+00 3.791516102137815381e+01 -8.004637448044425341e+00 7.778627994916989792e+02
6.684418575868739936e+02 -1.582470100664970403e+01 3.465171258505485241e+01 -1.582470100664970403e+01 6.451745949974621226e+02 1.231166863653735888e+01 3.465171258505485241e+01 1.231166863653735888e+01 7.294553857520683096e+02
8.226470156201547752e+02 -8.906827901454924756e+00 -1.877037919600067539e+01 -8.906827901454924756e+00 8.059403073572061658e+02 4.716892092694428129e+01 -1.877037919600067539e+01 4.716892092694428129e+01 7.856735234440963040e+02
8.695202576377373589e+02 2.887255410209133544e+01 2.332740163289212632e+01 2.887255410209133544e+01 7.870194571848502392e+02 4.176601424769977200e+01 2.332740163289212632e+01 4.176601424769977200e+01 8.477666372878204584e+02
8.171674457915562471e+02 2.014628444596967327e+01 -4.010734086407349963e+01 2.014628444596967327e+01 8.254254639156531539e+02 -1.158708827845134692e+01 -4.010734086407349963e+01 -1.158708827845134692e+01 8.311255295167615031e+02
9.477374967340261946e+02 1.359007536736303834e+01 -7.814384565787800163e+00 1.359007536736303834e+01 8.453536126166073927e+02 -1.178500816674706186e+01 -7.814384565787800163e+00 -1.178500816674706186e+01 8.693067665295707229e+02
7.472094193088942120e+02 -5.001831125255717581e+01 -4.444534111154182909e+01 -5.001831125255717581e+01 7.308388637466398450e+02 -9.699952394603227335e-01 -4.444534111154182909e+01 -9.699952394603227335e-01 7.936176853543469178e+02
8.755526185372713144e+02 3.792265673301653806e+01 6.374521190132189474e+01 3.792265673301653806e+01 8.689938967023733767e+02 -7.661644256036328926e+00 6.374521190132189474e+01 -7.661644256036328926e+00 9.254260691573344957e+02
7.340633330594255312e+02 1.029215621572544137e+01 -2.794231305246412589e+01 1.029215621572544137e+01 7.116933298337180531e+02 -3.125642626146291647e+01 -2.794231305246412589e+01 -3.125642626146291647e+01 7.626515431330460615e+02
7.516663031830503314e+02 -5.798548409605825960e+00 2.881564767379204994e+01 -5.798548409605825960e+00 7.511103655599005151e+02 -1.027084870917706816e+01 2.881564767379204994e+01 -1.027084870917706816e+01 7.330889277134593840e+02
6.609027986084014401e+02 -5.600785491475257061e+01 -3.387464219908903829e+01 -5.600785491475257061e+01 6.821614925597681349e+02 -3.296908455092808055e+01 -3.387464219908903829e+01 -3.296908455092808055e+01 6.558042579117455944e+02
8.813726697910610710e+02 -1.246715018370117889e+01 -7.961704604666624441e+00 -1.246715018370117889e+01 8.966758821234139987e+02 1.054873595114737661e+01 -7.961704604666624441e+00 1.054873595114737661e+01 8.799319079029428394e+02
7.521747856387348747e+02 1.661169740887580559e+01 -1.889288883098187810e+01 1.661169740887580559e+01 7.043564306861911746e+02 1.340382615418673851e+01 -1.889288883098187810e+01 1.340382615418673851e+01 7.469574247824474469e+02
7.554059969905529215e+02 4.319361574835652107e+01 3.704955876142003035e+01 4.319361574835652107e+01 8.135741732375139463e+02 -7.404161727557612949e+01 3.704955876142003035e+01 -7.404161727557612949e+01 7.997963723303695360e+02
9.105601370191739079e+02 6.014698694801077039e+01 3.648897919689713998e+00 6.014698694801077039e+01 9.392495753192973780e+02 1.634095335110988501e+01 3.648897919689713998e+00 1.634095335110988501e+01 7.935042102099665726e+02
7.041917613124485342e+02 5.005589807009106273e+00 -5.293053062847017820e+00 5.005589807009106273e+00 7.773228320899451091e+02 2.648792842888448718e+01 -5.293053062847017820e+00 2.648792842888448718e+01 7.405202510936512681e+02
7.531666770286370820e+02 4.445378623521962425e+01 -6.792087001548925862e+00 4.445378623521962425e+01 7.250536158258709065e+02 -1.744351240447241125e+01 -6.792087001548925862e+00 -1.744351240447241125e+01 7.305119487287083757e+02
7.953189309505529536e+02 -8.464448985987351737e-01 9.764939925134040521e+00 -8.464448985987351737e-01 7.302597134944232948e+02 2.049653878770170223e+01 9.764939925134040521e+00 2.049653878770170223e+01 7.409584105380937444e+02
6.253038988550537169e+02 2.394699474458780841e+01 -2.563427670460203345e+01 2.394699474458780841e+01 6.347401938516751443e+02 2.753043457337919264e+01 -2.563427670460203345e+01 2.753043457337919264e+01 6.349452515239129298e+02
8.862254176740834737e+02 -4.619565316479113903e+01 -2.635313379021619440e+01 -4.619565316479113903e+01 8.834281312249479470e+02 -1.010310852004743332e+01 -2.635313379021619440e+01 -1.010310852004743332e+01 8.607094738465232240e+02
8.046824993882888748e+02 1.606405241234047043e+00 -5.575209700265089197e+01 1.606405241234047043e+00 7.968947175121959390e+02 -2.202627352052964582e+01 -5.575209700265089197e+01 -2.202627352052964582e+01 7.895775981573916624e+02
6.103279718304835342e+02 4.448716241831862561e+01 4.712915378619880080e+00 4.448716241831862561e+01 5.638276065523122043e+02 -1.734788369208212799e+01 4.712915378619880080e+00 -1.734788369208212799e+01 5.843982764399097505e+02
7.106725186168238224e+02 2.831859733824164138e+01 -9.846405789835783295e+00 2.831859733824164138e+01 6.217846944571321046e+02 2.452139070252484387e+01 -9.846405789835783295e+00 2.452139070252484387e+01 7.137063156774888739e+02
5.857928706714960754e+02 1.919473531414974943e+01 1.666532372379709059e+01 1.919473531414974943e+01 5.490277795123229225e+02 -2.209853610127854751e+01 1.666532372379709059e+01 -2.209853610127854751e+01 6.009244755576041825e+02
7.306758849004515923e+02 5.000933106479032553e+00 -9.334334146902989460e+00 5.000933106479032553e+00 7.506258875839778284e+02 -1.861677944218679670e+01 -9.334334146902989460e+00 -1.861677944218679670e+01 7.769945698576010500e+02
7.340649683609491376e+02 -1.830683731719048168e+01 -1.023844700644697880e+01 -1.830683731719048168e+01 7.973139588188765856e+02 -4.637381417201682865e+01 -1.023844700644697880e+01 -4.637381417201682865e+01 6.989871541117437346e+02
7.568555434389273842e+02 1.033372645865248884e+01 -9.732207128091699744e+00 1.033372645865248884e+01 8.535687950216967010e+02 5.004014717389384082e+00 -9.732207128091699744e+00 5.004014717389384082e+00 8.163194511937596189e+02
5.931701092421567409e+02 -7.625369978508669710e+00 1.088245652481620596e+01 -7.625369978508669710e+00 6.229270735824724170e+02 3.230996820721727403e+01 1.088245652481620596e+01 3.230996820721727403e+01 6.035667741210588702e+02