1.014788199999999918e+01 1.077138199999999912e+01 1.080998199999999976e+01 1.407148199999999960e+01 7.337901999999999703e+00 1.444788199999999989e+01 1.051328200000000024e+01 1.221108199999999933e+01 5.149251999999999718e+00 1.505068200000000012e+01 9.915482000000000795e+00 7.602882000000000140e+00 5.062841999999999842e+00 1.531158199999999958e+01 3.877371999999999819e+00 1.260988200000000070e+01 1.500528199999999934e+01 6.685079999999999911e-01 3.842149999999999732e-01 1.217378199999999921e+01 6.864171999999999940e+00 1.114819999999999978e-01 7.572491999999999557e+00 1.061008200000000024e+01 1.550508199999999981e+01 1.293588199999999944e+01 1.078068200000000054e+01 1.539608199999999982e+01 2.107121999999999939e+00 2.641182000000000141e+00 1.452088200000000029e+01 6.398801999999999879e+00 3.732362000000000180e+00 1.086268199999999950e+01 5.878872000000000320e+00 6.682252000000000081e+00 9.868681999999999732e+00 2.430632000000000126e+00 1.182098200000000077e+01 2.568442000000000114e+00 4.464342000000000255e+00 2.076931999999999778e+00 6.963771999999999629e+00 1.473178200000000082e+01 2.288571999999999829e+00 1.380098199999999942e+01 9.482362000000000180e+00 5.206381999999999621e+00 6.308481999999999701e+00 4.438081999999999638e+00 7.246622000000000341e+00 1.223778199999999927e+01 2.711911999999999878e+00 1.250808199999999992e+01 1.262938199999999966e+01 1.359228200000000086e+01 4.569682000000000244e+00 1.499958200000000019e+01 4.804062000000000054e+00 1.007588200000000001e+01 1.316178200000000054e+01 2.035391999999999868e+00 6.080262000000000278e+00 9.268342000000000525e+00 1.167108200000000018e+01 9.411032000000000508e+00 1.004068200000000033e+01 9.592351999999999990e+00 3.522620000000000196e-01 1.433978199999999958e+01 1.289258200000000087e+01 7.965879999999999628e-01 5.052781999999999663e+00 8.022831999999999297e+00 3.211662000000000017e+00 6.720971999999999724e+00 8.149442000000000519e+00 7.640401999999999916e+00 9.664222000000000534e+00 2.012782000000000071e+00 1.378058200000000078e+01 1.227378200000000064e+01 9.938981999999999317e+00 1.175548200000000065e+01 4.763632000000000311e+00 1.082838199999999951e+01 6.424392000000000102e+00 1.110818199999999933e+01 3.419951999999999881e+00 6.033981999999999957e+00 7.679511999999999894e+00 9.553891999999999385e+00 5.442321999999999882e+00 9.084822000000000841e+00 4.333852000000000260e+00 1.031458199999999970e+01 2.388371999999999939e+00 7.252702000000000204e+00 1.022628199999999943e+01 1.398958200000000041e+01 1.566609999999999947e-01 4.293192000000000341e+00 1.430278200000000055e+01 1.156468199999999946e+01 1.143408200000000008e+01 5.940512000000000015e+00 7.738570000000000171e-01 1.131188200000000066e+01 9.728372000000000241e+00 1.876392000000000060e+00 7.487701999999999636e+00 1.501938200000000023e+01 6.381041999999999881e+00 1.231141999999999959e+00 6.979741999999999891e+00 6.243001999999999718e+00 3.141471999999999820e+00 5.294372000000000078e+00 1.386048199999999930e+01 9.814982000000000539e+00 1.154078200000000010e+01 4.772382000000000346e+00 9.798261999999999361e+00 1.680582000000000020e+00 9.124731999999999843e+00 1.706151999999999891e+00 6.131041999999999881e+00 1.347099999999999964e-01 6.429200000000000192e-02 4.083561999999999692e+00 5.223521999999999998e+00 1.068418199999999985e+01 5.747691999999999801e+00 2.065641999999999978e+00 4.105701999999999963e+00 2.638891999999999793e+00 1.355858199999999947e+01 6.969242000000000381e+00 4.839512000000000036e+00 1.378651999999999989e+00 9.864682000000000173e+00 1.280868199999999923e+01 9.388961999999999364e+00 9.032692000000000832e+00 1.208178200000000047e+01 6.980681999999999832e+00 8.809682000000000457e+00 2.069481999999999822e+00 8.525319999999999565e-01 1.273568200000000061e+01 7.856662000000000035e+00 1.530528200000000005e+01 7.890022000000000091e+00 1.114118200000000058e+01 8.174811999999999301e+00 2.387122000000000188e+00 1.399958200000000019e+01 8.176052000000000319e+00 1.220478199999999980e+01 9.785691999999999169e+00 7.782651999999999681e+00 4.425411999999999679e+00 1.331428200000000039e+01 9.226220000000000532e-01 8.396292000000000755e+00 3.543372000000000188e+00 7.271151999999999838e+00 1.402068200000000076e+01 1.132318199999999919e+01 8.186462000000000572e+00 6.463502000000000081e+00 2.006511999999999851e+00 4.718201999999999785e+00 4.646442000000000405e+00 1.028398199999999996e+01 1.119428199999999940e+01 1.411888199999999927e+01 5.549610000000000376e-01 6.626852000000000409e+00 5.545721999999999596e+00 6.747571999999999903e+00 6.114702000000000304e+00 1.161508199999999924e+01 6.926961999999999620e+00 9.441012000000000626e+00 1.226668199999999942e+01 7.739212000000000202e+00 6.556282000000000387e+00 7.978089999999999904e-01 3.719212000000000184e+00 3.532432000000000016e+00 1.067161999999999944e+00 7.310952000000000339e+00 1.485271999999999926e+00 1.337768200000000007e+01 6.905721999999999916e+00 3.698582000000000036e+00 2.898832000000000075e+00 5.460892000000000301e+00 1.411388200000000026e+01 7.206602000000000174e+00 4.707241999999999926e+00 1.366088200000000086e+01 1.199528199999999956e+01 1.310718199999999989e+01 8.743161999999999878e+00 6.885409999999999586e-01 3.101042000000000076e+00 2.435261999999999816e+00 7.902391999999999861e+00 5.910942000000000363e+00 3.867341999999999835e+00 2.927690000000000015e-01 1.125588199999999972e+01 4.755820000000000047e-01 1.482648200000000038e+01 1.434398200000000045e+01 1.158918199999999921e+01 4.818031999999999648e+00 7.056161999999999601e+00 5.733261999999999858e+00 1.433788200000000046e+01 4.884899999999999798e-01 1.477398200000000017e+01 1.213608200000000004e+01 5.995892000000000444e+00 1.154388199999999998e+01 1.331008199999999952e+01 2.591061999999999976e+00 1.474278200000000005e+01 4.780651999999999902e+00 1.155728200000000072e+01 1.484588199999999958e+01 9.096811999999999898e+00 3.502352000000000132e+00 7.646011999999999809e+00 8.380720000000000391e-01 3.861832000000000154e+00 3.141792000000000140e+00 5.689151999999999987e+00 1.479568199999999933e+01 1.348328200000000088e+01 1.377558199999999999e+01 9.893281999999999243e+00 9.640220000000000455e-01 9.787701999999999458e+00 1.217502000000000084e+00 3.544751999999999903e+00 9.214681999999999817e+00 8.756422000000000594e+00 1.119118199999999952e+01 3.799612000000000211e+00 2.560761999999999983e+00 8.197502000000000066e+00 5.924172000000000438e+00 7.372951999999999728e+00 7.834322000000000230e+00 1.017148199999999925e+01 7.633251999999999704e+00 1.390138199999999991e+01 9.872782000000000835e+00 8.293120000000000491e-01 6.317450000000000010e-01 3.656071999999999989e+00 8.074412000000000589e+00 1.253108199999999961e+01 2.273702000000000112e+00 2.907512000000000096e+00 8.208821999999999619e+00 1.227168200000000020e+01 1.381928199999999940e+01 1.048281999999999936e+00 1.103078200000000031e+01 1.132068199999999969e+01 1.327788199999999996e+01 1.120878199999999936e+01 2.621891999999999889e+00 3.218592000000000120e+00 1.151818199999999948e+01 1.020218200000000053e+01 1.056638200000000083e+01 7.201421999999999990e+00 4.609371999999999581e+00 8.573242000000000473e+00 7.456941999999999737e+00 1.319198199999999943e+01 4.358591999999999800e+00 1.181598199999999999e+01 8.629842000000000013e+00 4.585542000000000229e+00 8.038111999999999924e+00 1.503988200000000042e+01 1.066528199999999948e+01 8.744119999999999671e-01 1.452438199999999924e+01 4.319852000000000025e+00 2.226481999999999850e+00 7.716952000000000034e+00 1.203908200000000051e+01 1.516148199999999946e+01 7.652082000000000050e+00 8.733902000000000498e+00 1.469028199999999984e+01 1.423198200000000035e+01 1.290682000000000107e+00 7.355150000000000299e-01 1.550758199999999931e+01 2.467591999999999786e+00 1.428468200000000010e+01 3.190522000000000080e+00 9.135742000000000473e+00 3.714472000000000218e+00 1.263718199999999925e+01 1.507938200000000073e+01 1.299558200000000063e+01 4.235331999999999653e+00 1.516688199999999931e+01 1.395898200000000067e+01 1.485478200000000015e+01 1.257518199999999986e+01 1.512848199999999999e+01 4.447892000000000401e+00 7.641811999999999827e+00 1.844462000000000046e+00 1.023338200000000064e+01 8.899891999999999470e+00 1.667202000000000073e+00 1.188878200000000085e+01 2.360311999999999966e+00 5.506972000000000200e+00 5.038981999999999850e+00 1.237158200000000008e+01 1.280438200000000037e+01 9.225761999999999574e+00 6.820509999999999629e-01 7.302171999999999663e+00 4.649841999999999587e+00 9.989482000000000639e+00 7.456692000000000320e+00 1.509408200000000022e+01 4.813781999999999783e+00 1.160781999999999980e+00 1.399138199999999976e+01 1.111421999999999910e+00 9.670702000000000353e+00 8.376312000000000424e+00 8.409191999999999112e+00 4.694291999999999909e+00 1.368848200000000048e+01 1.425178200000000039e+01 1.384438199999999952e+01 4.967912000000000106e+00 1.515628199999999914e+01 1.540108200000000060e+01 6.711961999999999762e+00 5.942981999999999765e+00 1.299608199999999947e+01 1.447488199999999914e+01 9.616531999999999414e+00 6.362391999999999825e+00 7.615762000000000143e+00 8.481481999999999744e+00 1.316338200000000036e+01 9.452541999999999334e+00 1.500982000000000038e+00 1.096128200000000064e+01 7.151422000000000168e+00 7.641142000000000323e+00 1.540098200000000084e+01 3.365241999999999845e+00 4.439382000000000161e+00 5.113921999999999635e+00 2.053932000000000091e+00 9.595499999999999863e-02 3.886991999999999781e+00 1.527548200000000023e+01 1.555798599999999965e+01 3.705541999999999891e+00 1.131038200000000060e+01 1.338598200000000027e+01 5.091981999999999786e+00 6.933042000000000371e+00 2.485371999999999915e+00 3.646752000000000216e+00 1.526808199999999971e+01 6.207411999999999708e+00 1.068208199999999941e+01 4.577251999999999654e+00 8.045719999999999539e-01 1.113848199999999977e+01 6.000341999999999842e+00 7.062532000000000032e+00 3.693102000000000107e+00 6.838531999999999833e+00 1.491108200000000039e+01 6.971301999999999666e+00 1.534838200000000086e+01 1.114071999999999951e+00 1.504081999999999919e+00 7.372440000000000104e-01 9.935781999999999670e+00 7.622659999999999991e-01 7.904621999999999815e+00 6.307292000000000343e+00 2.102682000000000162e+00 1.054732000000000003e+00 5.258492000000000388e+00 5.290901999999999994e+00 1.432498200000000033e+01 9.663572000000000273e+00 8.721412000000000830e+00 1.339148199999999989e+01 1.392818199999999962e+01 1.150992000000000015e+00 5.168741999999999948e+00 4.433741999999999628e+00 7.759222000000000286e+00 1.484988199999999914e+01 7.263761999999999830e+00 1.917119999999999935e-01 2.815119999999999845e-01 1.408708200000000055e+01 1.088318199999999969e+01 6.811711999999999989e+00 8.828381999999999508e+00 1.105678200000000011e+01 8.706682000000000698e+00 3.711451999999999973e+00 1.147188200000000080e+01 2.922362000000000126e+00 6.055951999999999558e+00 9.906781999999999755e+00 2.895341999999999860e+00 8.224351999999999663e+00 1.094028199999999984e+01 1.047968200000000039e+01 1.218158200000000058e+01 1.103368200000000066e+01 1.034498199999999990e+01 1.428222000000000103e+00 1.481038200000000060e+01 2.323662000000000116e+00 2.386432000000000109e+00 1.249558200000000063e+01 5.324932000000000443e+00 5.437071999999999683e+00 1.125278199999999984e+01 1.012358200000000075e+01 1.144398200000000010e+01 8.318972000000000477e+00 1.322118200000000066e+01 1.476088200000000050e+01 4.001862000000000030e+00 1.017088200000000064e+01 2.123622000000000121e+00 8.872802000000000078e+00 4.149032000000000053e+00 1.453248199999999990e+01 4.282382000000000133e+00 1.201698200000000050e+01 1.016368199999999966e+01 9.729801999999999396e+00 8.733672000000000324e+00 1.074888200000000005e+01 1.037238199999999999e+01 6.823561999999999905e+00 7.156780000000000364e-01 1.450678199999999940e+01 1.373658200000000029e+01 3.482199999999999879e-02 1.188818200000000047e+01 4.116281999999999996e+00 4.677121999999999780e+00 1.656012000000000040e+00 6.897102000000000288e+00 1.183588199999999979e+01 1.431508200000000031e+01 2.023232000000000141e+00 1.430028199999999927e+01 5.756961999999999691e+00 1.035628200000000021e+01 7.369652000000000314e+00 5.764721999999999902e+00 1.180748200000000026e+01 7.180962000000000067e+00 7.305142000000000024e+00 1.038938199999999945e+01 4.275311999999999557e+00 9.689641999999999200e+00 1.326372000000000106e+00 7.524352000000000373e+00 6.007892000000000010e+00 1.084468200000000060e+01 1.019768200000000036e+01 1.498098199999999913e+01 1.453788199999999975e+01 1.166478200000000065e+01 1.592811999999999895e+00 5.918491999999999642e+00 1.017048199999999980e+01 1.279928199999999983e+01 1.557568200000000047e+01 4.429351999999999734e+00 8.977721999999999980e+00 8.098020000000000218e-01 3.171892000000000156e+00 1.369918200000000041e+01 8.214641999999999555e+00 1.289828200000000002e+01 9.295811999999999742e+00 2.580621999999999971e+00 8.960452000000000083e+00 4.794351999999999947e+00 1.389998199999999962e+01 1.235011999999999999e+00 5.245292000000000066e+00 2.131981999999999822e+00 8.008292000000000854e+00 1.019722000000000017e+00 1.304738200000000070e+01 2.071002000000000010e+00 7.635801999999999978e+00 7.580122000000000249e+00 4.111591999999999913e+00 7.303571999999999953e+00 4.392932000000000059e+00 1.374088199999999915e+01 1.079918200000000006e+01 1.441688199999999931e+01 1.198948200000000064e+01 1.006998199999999954e+01 1.487628199999999978e+01 7.129792000000000129e+00 2.510092000000000212e+00 1.496968200000000060e+01 6.847091999999999956e+00 4.989991999999999983e+00 9.406261999999999901e+00 1.201388200000000062e+01 1.409088200000000057e+01 4.361252000000000351e+00 1.185338199999999986e+01 5.746071999999999846e+00 4.592311999999999728e+00 2.689271999999999885e+00 3.573700000000000210e-01 1.514448200000000000e+01 8.691971999999999809e+00 1.156868200000000080e+01 1.417108200000000018e+01 1.033748199999999962e+01 4.170982000000000411e+00 7.921062000000000047e+00 1.507788200000000067e+01 9.219772000000000745e+00 1.251418199999999992e+01 8.852842000000000766e+00 5.522672000000000025e+00 8.312872000000000483e+00 2.335271999999999792e+00 1.362488199999999949e+01 1.158228199999999930e+01 1.378198199999999929e+01 1.254278200000000076e+01 1.265848199999999935e+01 8.572611999999999455e+00 1.195748200000000061e+01 3.801801999999999904e+00 1.437788199999999961e+01 7.340431999999999846e+00 1.423308199999999957e+01 2.897111999999999910e+00 2.424922000000000022e+00 8.044772000000000034e+00 5.660902000000000100e+00 1.513678200000000018e+01 8.201492000000000004e+00 1.123398199999999925e+01 2.553322000000000092e+00 4.000221999999999944e+00 7.059902000000000122e+00 1.513628199999999957e+01 1.528588200000000086e+01 1.217558200000000035e+01 5.572452000000000183e+00 2.611692000000000125e+00 9.595952000000000481e+00 2.601102000000000025e+00 6.830671999999999855e+00 3.570732000000000017e+00 1.488412000000000068e+00 1.020098199999999977e+01 9.231652000000000413e+00 7.215991999999999962e+00 6.010822000000000109e+00 1.456958200000000048e+01 3.213071999999999928e+00 1.464688199999999973e+01 1.552802000000000016e+00 1.504038199999999925e+01 4.644411999999999985e+00 9.017561999999999856e+00 3.883522000000000141e+00 5.993840000000000279e-01 2.084941999999999851e+00 3.657512000000000096e+00 4.848999999999999838e-02 1.114688199999999973e+01 7.717831999999999582e+00 7.404831999999999859e+00 6.466981999999999786e+00 1.049798200000000037e+01 2.783652000000000015e+00 6.533231999999999928e+00 1.324128200000000000e+01 3.304291999999999785e+00 9.160831999999999198e+00 1.293348199999999970e+01 6.559181999999999846e+00 1.400558200000000042e+01 1.068858200000000025e+01 8.209682000000000812e+00 1.377378200000000064e+01 2.981062000000000101e+00 8.278902000000000427e+00 4.312482000000000149e+00 9.296471999999999625e+00 1.259388200000000069e+01 1.948461999999999916e+00 1.141128199999999993e+01 1.370052000000000048e+00 3.088391999999999804e+00 1.067228199999999916e+01 1.405888200000000055e+01 9.791501999999999484e+00 6.527519999999999989e-01 8.207801999999999154e+00 1.093498199999999976e+01 5.113241999999999621e+00 7.180562000000000111e+00 1.513678200000000018e+01 9.284520000000000550e-01 1.935872000000000037e+00 5.232332000000000427e+00 2.890042000000000222e+00 7.169112000000000151e+00 5.004462000000000188e+00 3.760432000000000219e+00 7.998231999999999786e+00 1.265118200000000037e+01 7.586589999999999723e-01 1.296708199999999955e+01 3.638812000000000157e+00 1.331788200000000089e+01 1.322608199999999989e+01 1.101648199999999989e+01 1.215028200000000069e+01 1.040798200000000051e+01 1.520298200000000044e+01 9.606502000000000763e+00 8.442902000000000129e+00 9.561451999999999174e+00 1.555908200000000008e+01 2.900101999999999958e+00 3.570989999999999998e-01 1.375078199999999917e+01 5.176502000000000159e+00 2.865261999999999976e+00 5.184292000000000122e+00 3.116071999999999953e+00 2.235262000000000082e+00 6.486182000000000336e+00 1.144632000000000094e+00 7.579442000000000235e+00 9.618541999999999703e+00 1.252578199999999953e+01 1.541448199999999957e+01 8.220751999999999171e+00 1.865542000000000034e+00 3.038791999999999938e+00 8.138552000000000675e+00 6.162982000000000404e+00 9.911720000000000530e-01 9.705861999999999767e+00 1.226038199999999989e+01 8.486741999999999564e+00 1.879382000000000108e+00 9.796991999999999479e+00 2.842712000000000128e+00 6.362201999999999913e+00 1.182138199999999983e+01 6.006099999999999772e-01 1.345568199999999948e+01 1.311808199999999935e+01 6.633520000000000527e-01 9.954819999999999780e-01 1.087018199999999979e+01 1.127368200000000087e+01 6.129222000000000392e+00 1.139228199999999980e+01 1.484918200000000077e+01 5.409200000000000119e-02 5.666161999999999921e+00 1.333858200000000060e+01 8.359811999999999799e+00 1.333268200000000014e+01 1.265768199999999943e+01 4.224292000000000158e+00 1.079878199999999921e+01 7.339042000000000066e+00 3.349311999999999845e+00 3.408701999999999899e+00 4.150432000000000343e+00 1.129478199999999966e+01 1.063638199999999934e+01 2.487652000000000196e+00 1.290938200000000080e+01 2.317552000000000056e+00 3.271452000000000027e+00 1.453961999999999977e+00 1.529278200000000076e+01 1.199538199999999932e+01 1.224918199999999935e+01 1.432718200000000053e+01 7.188151999999999653e+00 1.322858199999999940e+01 5.338231999999999644e+00 1.484988199999999914e+01 1.309388200000000069e+01 7.122612000000000165e+00 9.136452000000000240e+00 6.643811999999999607e+00 3.665722000000000147e+00 7.772021999999999764e+00 6.873911999999999800e+00 1.292168200000000056e+01 8.172912000000000177e+00 1.491358199999999989e+01 5.507962000000000025e+00 7.706701999999999941e+00 8.228562000000000154e+00 1.000328200000000045e+01 1.174108200000000046e+01 3.818042000000000158e+00 1.196598200000000034e+01 8.169012000000000384e+00 9.290952000000000766e+00 1.221508200000000066e+01 1.386558199999999985e+01 9.968681999999999377e+00 3.137280000000000069e-01 1.427728199999999958e+01 1.325558200000000042e+01 7.715641999999999889e+00 8.046492000000000644e+00 8.809922000000000253e+00 1.201618200000000058e+01 4.772981999999999836e+00 1.119058199999999914e+01 7.044191999999999787e+00 1.528011999999999926e+00 1.193818199999999941e+01 1.148038200000000053e+01 4.758802000000000199e+00 6.445482000000000156e+00 9.700112000000000734e+00 5.491901999999999617e+00 7.579341999999999580e+00 3.976351999999999887e+00 1.983741999999999894e+00 8.784262000000000015e+00 1.095692000000000110e+00 4.906360000000000166e-01 1.177408199999999994e+01 5.802801999999999794e+00 4.486702000000000190e+00 1.475868200000000030e+01 1.074078199999999939e+01 1.007458199999999948e+01 1.196538199999999996e+01 1.414368200000000009e+01 5.000981999999999594e+00 3.784721999999999920e+00 1.216368199999999966e+01 5.764972000000000207e+00 9.027532000000000778e+00 1.424358199999999997e+01 4.375922000000000089e+00 1.116428200000000004e+01 4.862411999999999956e+00 1.019241999999999981e+00 3.892441999999999958e+00 1.809121999999999897e+00 1.249928199999999912e+01 7.347641999999999562e+00