-7.779969427650267608e+04
-7.780912086102743342e+04
-7.780019767651385337e+04
-7.780994891610329796e+04
-7.779399256921971391e+04
-7.781154259705460572e+04
-7.779743056858312048e+04
-7.780799044784106081e+04
-7.780980173026824195e+04
-7.780606839964480605e+04
-7.780492126337061927e+04
-7.779559532867642702e+04
-7.779894377381255617e+04
-7.780114484622009331e+04
-7.781291226060500776e+04
-7.779773677857445728e+04
-7.780006783389313205e+04
-7.779747395680092450e+04
-7.780117330222573946e+04
-7.779710318791438476e+04
-7.781213787203781249e+04
-7.780330349501667661e+04
-7.780123128013078531e+04
-7.781534712480257440e+04
-7.779892919730182621e+04
-7.780227852619846817e+04
-7.780394802351549151e+04
-7.780815617931139423e+04
-7.781377983720760676e+04
-7.779879373958964425e+04
-7.778105067002092255e+04
-7.779657050462282496e+04
-7.778737886493302358e+04
-7.780961532547457318e+04
-7.781030095282304683e+04
-7.780128222730288689e+04
-7.781362939749244833e+04
-7.780276658943278017e+04
-7.780001085396160488e+04
-7.779473804267724336e+04
-7.780497105906729121e+04
-7.780016289577751013e+04
-7.780557824102113955e+04
-7.781173342750563461e+04
-7.781319428342538595e+04
-7.780366077026246057e+04
-7.779754444260585296e+04
-7.780529177580031683e+04
-7.780195262810208078e+04
-7.778834273886588926e+04
-7.780630173359793844e+04
-7.779982495414817822e+04
-7.779797245139583538e+04
-7.779237142307775503e+04
-7.779778695477347355e+04
-7.780388459266476275e+04
-7.779652281383857189e+04
-7.780281447891720745e+04
-7.781179505487577990e+04
-7.780563673394783109e+04
-7.779757217301402125e+04
-7.781167943946766900e+04
-7.780790239346426097e+04
-7.780019014235859504e+04
-7.781081913003875525e+04
-7.780500206045314553e+04
-7.780068097819587274e+04
-7.781010376866505248e+04
-7.780101805905015499e+04
-7.780144269516553322e+04
-7.781482412227816531e+04
-7.780070869705990481e+04
-7.779473083136587229e+04
-7.779396753760655702e+04
-7.778941224183114537e+04
-7.779508798227265652e+04
-7.778723868665336340e+04
-7.779928096885611012e+04
-7.780290139346873912e+04
-7.780486936908934149e+04
-7.781360253374060267e+04
-7.780600313425222703e+04
-7.780780822602049739e+04
-7.781305166662405827e+04
-7.780606617023400031e+04
-7.779456058737775311e+04
-7.779303379386739107e+04
-7.781070415784597571e+04
-7.779937283684406430e+04
-7.780316289569828950e+04
-7.781242671238776529e+04
-7.779201264036368229e+04
-7.778666442124427704e+04
-7.780642253677808912e+04
-7.779142196930093633e+04
-7.780860709085753479e+04
-7.780544509907947213e+04
-7.780461745962688292e+04
-7.779992078756095725e+04
-7.779950132448710792e+04
-7.779947442822559969e+04
-7.779998446845996659e+04
-7.780394556106426171e+04
-7.779584765814385901e+04
-7.780674999519142148e+04
-7.780393363999971189e+04
-7.780096509188403434e+04
-7.779491827912608278e+04
-7.779013598843265208e+04
-7.781941473794160993e+04
-7.780707082458742661e+04
-7.779701750831236131e+04
-7.781131945870652271e+04
-7.780382140403131780e+04
-7.779708610855153529e+04
-7.780601665519217204e+04
-7.779910896393090661e+04
-7.780915925213666924e+04
-7.780853219737987092e+04
-7.779673020586142957e+04
-7.780490507849569258e+04
-7.780101081579246966e+04
-7.780176859672294813e+04
-7.778852169732308539e+04
-7.780933188852312742e+04
-7.779503177376149688e+04
-7.779691039906327205e+04
-7.781777799756929744e+04
-7.779370837916032178e+04
-7.780381348878712743e+04
-7.780117178815898660e+04
-7.781067101967362396e+04
-7.779498249548273452e+04
-7.780813900485543127e+04
-7.781072168087532918e+04
-7.779633099813846638e+04
-7.779407514170705690e+04
-7.780075125329778530e+04
-7.778722137758495228e+04
-7.779457618121676205e+04
-7.780507267159868206e+04
-7.780722720872696664e+04
-7.780522617217834340e+04
-7.780462556905038946e+04
-7.779948039054518449e+04
-7.779779549479702837e+04
-7.780161660746048437e+04
-7.779584414178523002e+04
-7.779582207454254967e+04
-7.781047086896441760e+04
-7.778885644139601209e+04
-7.779797688495735929e+04
-7.780859234461713640e+04
-7.780815138561482308e+04
-7.780141001438547391e+04
-7.780534973508233088e+04
-7.779798686634039041e+04
-7.780231699566790485e+04
-7.780635541996236134e+04
-7.782346561040182132e+04
-7.780446253284157137e+04
-7.780499404385694652e+04
-7.781279128079694055e+04
-7.780544366036537394e+04
-7.780122932266897988e+04
-7.780817516188079026e+04
-7.779926566294602526e+04
-7.780111426454081084e+04
-7.779808567119938380e+04
-7.780501307055971120e+04
-7.780153544028928445e+04
-7.780299318998363742e+04
-7.780427108866526396e+04
-7.780520284927466128e+04
-7.780127201486077684e+04
-7.780616507298318902e+04
-7.780630584049303434e+04
-7.781235450177890016e+04
-7.779880171815362701e+04
-7.780994101722478808e+04
