7.671596540312097812e-01 4.005115711735347528e-01 4.941369635573008345e+00 -2.536139967477119672e+00 3.601759471789022005e+00 7.377958537298659358e+00 4.059317141958769248e+00 -9.896685964286945358e-01 -1.228343608399386611e+00 -4.673471462655519382e+00 1.779583543759527986e+00 -1.249934191870671674e+00 2.832929114785506797e-01 -1.110621526663809311e+00 -1.980950817334796277e+00 2.323295288441135309e+00 -2.443629096983835236e+00 1.290057802681099153e+00 1.415367724693483265e+00 -3.868656971273421341e+00 -7.315730122342183339e-01 -1.706122492383523592e-01 -1.932182128540248733e+00 -4.923914928988845086e-01 -5.800938858624573591e+00 -9.317248738226160398e+00 6.687311320127499181e-01 -3.797629212130396503e+00 -9.867452518926653759e-01 -5.693257964005097982e+00 1.457409378620777796e+00 -2.841106766176266785e+00 -5.092142222737644497e-01 -3.497488374463902261e+00 1.875499583561094363e+00 3.616792198995051333e+00 -5.604296244609030531e+00 3.180095947379775190e+00 -5.410226790850003020e+00 1.941562027868605433e+00 -3.797931059666482256e-01 -2.700964663021011569e-01 2.621549964672597710e+00 -2.021179329162875238e+00 -5.110319923590526114e-01 -3.906602857526225936e+00 -9.960968690839101525e-01 2.593044655787771546e+00 -3.608780126661564891e-01 -1.425735956158734830e+00 2.209664860614649395e+00 3.065247330774775403e+00 -1.287141657234516900e+00 5.999849700036498090e-01 -5.057902324887858292e+00 4.570034431264865304e+00 5.523830479201400356e-01 3.832723230520964641e-01 5.003491092629133163e+00 4.621915183583079845e+00 -2.983591658725743834e+00 -2.343111810584486587e+00 8.569518398170204998e-01 -3.264778322320463833e+00 1.990061265029576809e+00 -2.148154297720143102e+00 -2.837250111115542150e+00 -1.903145629698391961e+00 1.824015295383122348e+00 -2.137937761353946531e+00 -1.117664807246041780e+00 3.013281732045224731e-02 1.670066881331148112e+00 -5.676783362027032709e+00 -4.829115776492863610e+00 3.544547279514861593e+00 1.485298136916562983e+00 5.077979042692639666e+00 -7.096415004555653994e-01 -1.404418938086423874e-01 4.425267941581464193e+00 -1.571967460544536621e-01 6.084192175111167167e-01 -2.248121367997494291e-01 -2.800077098536906117e+00 3.281024610318934442e+00 -5.270952177973072805e-01 -1.504741334850036694e+00 -1.645377089853065078e+00 1.457463886012302590e+00 4.623971037840784781e+00 -7.754792303282044275e-01 -3.962471391177230240e-01 2.417882067798438506e+00 -3.343070476935869006e+00 1.104109950259282380e+00 -1.762492905413096222e+00 -1.979806676333447646e+00 -3.088422228145005999e+00 3.163927820923869039e+00 2.199988770177628616e+00 1.253952826443946567e+00 -2.590512633185236613e+00 -1.160667025393794072e+00 1.456540345680427673e-01 3.277071281771354094e+00 3.191585179916011317e+00 -2.142873765610999293e+00 8.118135489863017584e-01 1.637413354263006493e+00 3.553830505356362912e-01 -8.883846070032742626e-01 8.529681722496296192e-01 6.665786042681909329e-01 -1.179655138030102135e+00 -1.998032199709081969e+00 1.873931724723741699e+00 5.539369713772071435e+00 -2.038801157466337610e+00 -1.754749256271836533e+00 2.935348503460804004e+00 3.220301833498165234e+00 3.768992776973504988e+00 -1.152355676627595527e+00 2.517494840030878311e+00 -4.815859681718141161e+00 3.719435787884545874e+00 -9.727877601175662914e-01 -2.427598267448090485e+00 -1.615618625183840473e+00 1.080140581946542389e+00 1.810650700046025241e+00 -3.173690814654924530e+00 9.717058398178644030e-01 3.494330545300181612e+00 3.764095339267060046e-03 2.169902232717905388e+00 -2.728301148312100910e+00 -7.272504732421584128e-01 2.609407671879412915e-01 -3.717421585501497816e+00 3.895581565804025481e-01 -6.171522272306212420e-01 1.930407552991640685e+00 -1.093805482157701237e+00 4.376272481469346332e+00 -4.645435123026077306e+00 1.190568443410602972e+00 5.342828915450131610e+00 -2.320447534344296514e+00 9.911701207990033513e-01 1.277270677161761236e+00 -1.122939682927763361e+00 -1.647998072632333333e+00 1.645863028390716076e+00 -2.213040205123795179e+00 -5.731102548784975381e-01 4.599179430669098068e-01 -4.493157411946409330e-02 7.397424360941821930e-02 -4.990768758914815306e-02 2.217768464228243364e+00 -1.127487450575369587e+00 1.648489153376732075e+00 2.492021890465130785e+00 -4.401243551656524922e+00 -7.718164364618658180e-01 -5.818811112396645058e+00 3.431811081441789035e-01 3.484633886036169859e+00 -1.055265671025544361e+00 4.681945819375618711e+00 8.003628830006733752e-01 -1.508941489321503182e+00 2.509849921259172945e+00 -4.588007472289191035e+00 1.965055227836514096e+00 -4.107887855793532772e-01 -4.510497961540775869e+00 -2.448149610935678844e+00 -5.054616968996795912e+00 -3.025249189808989936e+00 1.334242728380807153e+00 1.202474194693396448e-01 -4.801971095513460241e+00 1.736763873951316928e+00 -2.856732389820297868e-01 9.862495431621934872e-01 -4.811645643288456675e+00 1.549834888482051420e+00 -4.169901326507956973e+00 -2.290937952481657103e+00 -3.145592768544509976e+00 -2.619126956853113253e+00 8.026434516932484664e-01 9.772841056976961926e-01 1.128061320848405380e+00 1.699149660033733578e-01 -2.126101944082920692e-01 1.746475445614895650e+00 3.984581851750701009e+00 5.236688625972247380e+00 -1.875350973786088060e+00 1.008858489257779745e+01 8.886885114220595128e-01 1.630359789267278980e+00 -8.897966569761742717e-01 -1.905175772922357069e+00 1.819215045384207363e-01 -1.649453317141913455e+00 -1.772157682995271655e+00 -4.340321257213948236e+00 3.467367384218969839e+00 1.357483445997407445e+00 -3.071898775202838383e+00 -3.133523495087141786e+00 -2.900515194952340448e+00 2.044639619007599496e+00 -3.481097076235148524e+00 -4.712803687847486600e+00 -2.143069169467409107e+00 -4.273479254363495627e+00 1.242992212761367510e+00 3.530631953835093650e+00 -5.780557207959657440e+00 -1.732853739940416915e+00 -2.104437827055144261e+00 -1.975946421728000280e+00 6.021199114011318798e+00 4.364444377508442052e+00 -7.888701537638494798e+00 6.192842889923245941e+00 -2.858197404522698548e+00 2.242637718721819162e+00 1.161655357530688992e-01 -6.648019718368839426e-01 8.312027537489250495e-01 7.124326902781803472e-01 3.589054621577646154e-02 -1.487877467821175692e+00 -7.100431068025554460e-01 4.535426351411949164e-01 3.013924507888678495e+00 2.506288943086437460e+00 1.078995926724519494e+00 -3.070212131389614463e+00 -1.172075011063417049e+00 -8.501934374886070955e-01 3.828894343376676890e+00 1.539534534145868383e+00 5.147678055612076031e-01 2.345263824108371420e+00 -1.882978409054851532e-01 -2.763482069996704205e+00 1.362380883703852685e+00 -5.821240290864226896e-01 1.151539094196071478e+00 -1.411373258491922300e+00 1.019719652661859266e+00 2.479556667088194388e-01 -1.909607840918141841e+00 1.262496602955138103e+00 1.129406522133586055e+00 2.150088281677927426e+00 8.621521535009014636e-01 4.305546055641733538e+00 -2.361902462481686005e+00 6.641982767647118535e-02 -2.324850291761619392e+00 -1.130866908849913477e+00 -4.554077649506287351e+00 -7.206046852415179949e-01 -1.132993725560734521e+00 3.374110379526603865e+00 1.854520408472103199e+00 3.890516492157607420e-01 -7.122345610521939818e+00 -3.883090631393351533e+00 -1.052961962402605200e+00 2.893633893882658459e+00 9.314670435762897327e-01 -2.876869271444026932e-01 -7.097859964651738185e-01 -2.140491895445495452e+00 1.030309513237934071e+00 -4.673419526367369237e+00 4.391393140410759788e-02 2.229349742265261725e+00 2.314417782712022476e+00 3.272986826951710171e+00 -2.036008939202373469e+00 1.617662138145349315e+00 -3.427397525390296185e+00 1.081219416922195808e+00 -2.080459716990933572e+00 -2.974966635347939370e+00 5.753772995673263502e+00 6.506866657366998652e+00 2.973053734437819617e+00 7.230812234332454125e+00 2.440089201858764767e+00 -1.528101351663182284e+00 -6.574434739810216533e-01 3.900111849948689535e+00 -5.703113517457610859e-01 -4.345817762006493057e-01 -3.886166185249110283e-01 -8.111933988525371619e-01 1.920832764027548656e+00 3.460285022865455140e+00 2.011333031682508654e+00 -3.316076976834846590e+00 2.170933759391480589e+00 -2.560137103706296546e+00 -1.312280363361668423e+00 1.216578239360803337e+00 3.446178407094674156e+00 1.732547264418258237e+00 1.120249794578076719e+00 2.160368067187119934e+00 -3.124724665121267897e+00 8.704043668895022901e-01 6.888165915690028784e-01 1.383643908605313388e+00 -5.091159547028171417e+00 3.133838198140097120e+00 -4.604858483801183233e+00 1.380294789350580364e+00 3.281840678529783339e+00 8.918977626532569314e-01 -8.293978391805061356e-01 2.681361028237011723e+00 -1.898692478654942173e+00 -4.760598442684033316e+00 -4.162959861619327739e+00 -4.783517258158231367e-01 5.274433451941219486e-01 -9.860988765044880200e-01 -6.126008600382916169e-01 -1.839660459412794657e-01 4.533599839575190416e+00 -6.836641004078749528e-01 9.264405364804787490e-01 9.519818773959701219e-02 -6.204021018951250133e-01 2.580851455147785245e+00 1.559631306556966135e-03 -1.369762521490079266e+00 -3.023210304833553241e+00 6.401584602195293794e-01 -7.637987077009570358e-01 -4.517306243274641808e+00 -4.160991424876334110e-01 -1.649307278470280469e+00 2.001771098235285873e+00 7.105347017676292287e-01 4.355377124350341411e-01 3.218546798335198300e+00 -8.560231572783980614e-01 1.679772282346629897e+00 2.075615758234663766e-01 3.573741129883196255e+00 3.385162010268615962e+00 1.208432983872553157e+00 -1.334367169784099749e+00 1.781962842821657844e+00 -8.007176952662601321e-01 -8.543617102782381512e-01 2.196335232283436412e+00 -2.658959004540950133e+00 -2.273931132105211805e+00 -5.866918513403447388e-01 2.815065088544230765e-01 -2.310753446183659229e-02 -3.268345471141296810e-01 -1.907057306371315875e+00 -1.938230906337488735e+00 1.022951015382071782e+00 -3.689836731624497879e-01 4.440881738149976554e-01 -1.688937237432935334e-01 6.175965138936166943e-01 1.034195478877119712e+00 -1.679386616840557567e+00 -1.107974318630128296e+00 1.696712254035355860e+00 -2.127912000858087349e-01 -2.103470063745239926e+00 1.048379227749114850e+00 1.228164145383894290e+00 3.044083550463544049e-02 1.305273078226669492e+00 -1.554552348952329632e+00 -2.132261793545909168e+00 -4.930790059410428694e-01 -3.118743250232421382e-01 1.900580696972672623e+00 2.147652418341573721e+00 3.582494708429691865e+00 1.871768912565687115e+00 -3.035640046983931195e-01 3.337255155324971412e+00 -1.194395787892865851e-01 1.976604624191697246e+00 -2.896254362441252450e+00 -1.691439435236333555e+00 1.306504122522052613e+00 1.649515537843559532e+00 -3.538138547245286869e+00 -2.972396560415472955e+00 1.671572005246179993e+00 9.692792324536564363e-01 -1.281583960181675641e+00 -7.314218313558379370e-01 -2.338932739160686294e-02 7.085426108735962680e-01 -1.236148449800943405e+00 4.102205717337398250e-01 -3.077599939823938424e+00 -1.406304071080106022e+00 2.239922633559069176e+00 5.431473874910546229e+00 -5.462195989124275508e-01 8.021364301079318970e-01 -7.337990735352685201e-01 -3.018378173152803434e+00 3.448642038347465633e+00 -8.964923243822667254e-02 9.410963399319065559e-01 3.218667640193767721e+00 -1.900259309050945644e+00 1.110490400391744847e+00 1.056904492316014910e+00 6.866995450510025023e-01 8.453489645116624152e-01 -3.565009662825716630e-01 6.864182663419070574e-01 -1.779717755355641362e+00 -4.245272193470031930e+00 1.473865468654551591e+00 2.667764005154921403e+00 3.493622977651706929e+00 -5.297837691732394383e+00 2.111330955200346082e+00 3.818654152859441431e-01 1.426345307658329231e+00 -1.560446346326465950e+00 -2.746759613653402710e+00 5.562330181120925809e-01 1.333650860384154813e+00 -4.203556555450536969e+00 -2.349515400647313734e-01 8.090012761160214616e-01 -8.466309166538472653e-01 -3.095449567886320530e+00 -1.191170081600075870e+00 -6.913429577441148055e+00 -3.702013991423566353e+00 4.025669626326309647e+00 8.430966779561992475e-01 4.298008608991053414e+00 1.513349388945573804e+00 4.223668240261203799e+00 -2.898559099505541581e-01 -7.916530132115333629e-01 6.983697832647547399e-01 2.302423585473169165e+00 -2.027518641641357089e+00 5.079939766125513012e-01 -8.997802513767029220e-01 6.723358189428404463e-01 -2.105853476572767669e+00 1.187070200160188493e+00 1.063596560177384021e+00 -5.328272870809607653e+00 -1.161714492908286989e+00 -5.065668599738807565e+00 -2.368174926272448300e+00 -4.277054116494450220e+00 7.219027839128904667e+00 -1.289687049574594901e+00 -1.248454778989377845e+00 -3.632308293635357455e+00 -8.547376055914900073e-02 -3.590882161855754706e+00 -1.452879094476113575e-01 -1.560229345201715967e+00 -1.776745559855509582e-01 6.066508126106059384e-01 4.178112402242576628e+00 3.436509001526425688e+00 2.897374335070886708e+00 -5.901669546603948158e-01 9.661697400333630892e-01 -2.347083136855683816e-01 3.308572954528026244e-01 5.863214581883128496e+00 1.002932918734212864e+00 7.241260684222968758e-01 3.994979908015088732e+00 7.816488499840140713e-01 2.181499451595841244e+00 -2.667981520500346537e+00 -1.212951955162372863e+00 -4.495604073916932286e+00 -9.718621629029924325e-01 2.864594309716753440e+00 3.443782138750277610e+00 -4.582499140421127493e+00 4.816756482574928444e-02 -2.796615364954400107e+00 -6.858233130212059159e-01 5.468276134382677789e+00 5.115719240675540291e-01 -2.458077669503333507e-01 8.241677006974889030e-01 1.576249890323965230e+00 -1.479195365948472896e+00 -1.064605975361944346e+00 2.549902569616483206e+00 -3.379802802396232875e-01 -3.511959058472414963e+00 -9.547581548190169354e-01 4.288687845040294322e-01 -3.749828800866427780e+00 -4.712008188463628677e+00 -7.354024135991803213e-02 -5.172651696902628160e+00 3.295524604905908816e+00 2.298508823476197005e+00 2.826954384765432149e+00 -1.793514296059539603e-01 -2.905974675856302536e+00 4.080479893828650173e-01 -2.828412200378386032e+00 1.808113535236743230e+00 -1.279630950058924910e+00 -2.872102445788971892e+00 2.724585389716261297e+00 -4.324873553923384573e-01 2.085642547171872252e+00 -2.973184346489210039e+00 1.412362619070166803e+00 9.599307005864604614e-01 2.907000031881780355e+00 1.168989687014837520e+00 3.802307077608717556e-01 -3.272139391279700327e+00 -2.586191636855201370e+00 -4.868795614860970539e-02 6.647598057415532447e-01 8.221519556524169436e-01 9.006837371022621275e-01 2.222173278528265516e+00 -2.082052772641350469e+00 -1.084020376937631092e+00 -1.747301284018565604e-01 -8.085199655644430550e-01 4.866389576323753019e+00 7.194358616477810608e-01 9.096882553380414294e-01 4.912283257325699704e-01 9.503096317616398503e-01 -2.963367359587304684e+00 2.144179886124897738e+00 2.877316643431070964e-01 6.878323731975060085e-01 1.448629574819869870e+00 -1.768533455679540456e+00 -1.007629810377500545e+00 1.006213132418527723e+00 3.412724752656601357e+00 -3.324626923994135064e-01 3.327264361834996187e+00 -3.837474629555777395e-02 5.074661290899067367e+00 -1.452786534754656245e+00 -1.639324198290426748e+00 1.029063556542982649e+00 2.151403143943297014e+00 1.623152472289796977e+00 7.871919431696920988e+00 2.284246398840962922e+00 1.191014272735622548e+00 2.673326330193835698e+00 -7.624509353124024891e-01 1.000449232875106453e+00 4.150958979511703006e-01 -1.255138105099275814e+00 1.771281450965475290e+00 -3.130158949212165642e-01 1.646465180800864125e+00 -8.176083017702088229e-01 -5.344310899434798756e-01 1.882243587710614952e+00 1.207005507279410361e+00 -1.601311977570576861e+00 1.390043384902742263e+00 3.719276379475368710e+00 -5.226660808593688756e+00 -1.721505918089741405e+00 2.855380503666345327e+00 1.386796081341612252e+00 3.017450519055530300e+00 -6.068518728944384266e-01 1.412989968293377974e+00 1.877749813233858811e+00 1.705217463995940319e+00 -4.676929596693302771e-01 7.960989651655364652e-01 1.457393437779860079e+00 1.559813340675832327e+00 5.709530991478656281e-01 2.835449310312521565e+00 -2.032772434275412987e+00 1.376755408446184825e+00 1.797843519920371280e+00 5.086746505197353052e+00 -2.827839358546699877e+00 -4.441555367233916418e-01 -3.890285092853963400e-01 -2.319278196529884983e+00 -1.754620701103145608e+00 -3.312925318319222878e+00 -2.769049023021691092e+00 9.921821070869372150e-01 -1.967043204965149006e-01 -7.336648619391553661e-01 2.581793507423951084e+00 1.447060173320492416e+00 2.256467169548901919e-01 2.209079163266093992e+00 -5.293716213024167949e+00 -4.135264964517928910e+00 -3.867268061230884957e+00 -6.817383439808866186e-01 -2.837402834655947004e+00 -3.839152017396854966e+00 -3.751743758659246142e-01 -2.446923708847043244e+00 9.479370175682823030e-01 3.124970462603804400e+00 -1.142721752285905890e+00 5.196924969634153513e-01 4.109551359676391513e+00 -1.434966217270735367e+00 -2.691925177779348033e+00 -1.890411468908554271e+00 -6.822839321168103766e-01 -1.437602112449571923e+00 -1.561210992469838965e+00 -1.614142297626594891e+00 -5.156610068732714325e-01 -4.601544845773009484e+00 -1.981623932198061100e+00 -2.091912439859260786e+00 -1.735187273362492455e+00 -3.920586060335063294e+00 4.145288153910413165e+00 1.009836331292909728e+00 1.888727910419379263e+00 2.339729781206568993e-01 -1.062558862855711883e+00 2.853167297882164721e+00 -3.214381610869616157e+00 7.211379320812476290e-02 -7.347565524316777008e-01 3.412908329437491783e-01 -1.051411587068194070e-01 2.326351816131928096e+00 1.393389418833426818e+00 -5.262498390079964894e-01 -5.964846698705362771e-01 1.582683819406603298e+00 1.086516918313606972e+00 -1.386962688840235547e+00 -5.754052217499660005e-01 -4.967212309803910042e-01 -3.907316081602122959e-01 1.015185254751796995e+00 1.091065200181887906e+00 -1.452555649671687155e+00 1.077497487678259258e+00 1.046521348451195266e+00 8.726955285279773378e+00 -2.241235953162414585e-01 -3.137658343532913285e+00 1.801200352485225809e+00 3.417212356485260227e-01 2.050319700581034521e+00 2.303894770823667226e+00 -3.516083108284016490e+00 2.643624429798835163e+00 -3.675850443491611497e+00 5.028923932982249517e-02 -3.063726780239500389e-02 -2.169460517158283697e+00 8.279379666848533104e-01 -4.620848689903621631e-01 -1.326468225999061501e-01 2.819865338543146027e+00 -1.031093185546273272e+00 -1.401118155575118429e+00 1.169745591406739393e+00 3.569878304174375128e+00 6.769395852219284748e+00 -1.000530171209314112e+01 3.652324333400517875e-01 -3.902916923729522924e+00 -1.333991274470847956e-02 4.468885681876908045e+00 5.239270013759559141e+00 4.163907056102241100e+00 -1.516983900674800489e+00 8.996228998502254770e-01 2.416323979153906176e+00 -1.892573766845933925e+00 1.274288197248134358e+00 5.183940897596381880e-01 -6.358683171299795989e-01 1.751409907209923844e+00 2.446814694063994100e+00 -1.385752213371842956e+00 7.126913432775862089e-01 -5.261927605130978236e-01 -4.117287295507530587e+00 -4.949948379090082895e+00 -2.462551903594448532e+00 -2.381316349836697821e+00 -1.376686502875766660e+00 -8.051682752063360482e-01 -1.748591977912221096e-01 -2.877900283896927647e+00 2.396564021284778523e+00 -2.574245262139101431e+00 6.057411562369496849e-01 -1.395794943149969214e+00 1.441552355673103136e+00 -5.927524562131045172e-02 3.038665207213563146e+00 -3.851896976820862406e+00 2.975959595470907271e-01 7.222846441859696043e-01 2.606524436556015178e+00 2.981812455191062750e+00 -1.954079701754367349e-01 8.881712054232476783e-01 -3.344104060492143038e+00 -5.950597643807672421e-01 9.320861652687046917e-01 4.506681415692682935e-02 -2.638771729291093937e+00 5.056678479681921523e+00 -1.245745350254050088e+00 6.055462666012144668e-01 -1.243810852075590834e+00 -5.066153509835109175e-02 -6.917857017450859125e-01 7.718951122251046515e-01 -3.447003217056995084e+00 -3.454715498737094048e+00 2.269375651147484074e+00 2.587586717545833803e+00 -3.870128156623919402e+00 -3.692712767858447709e+00 -2.038110559100130281e+00 3.038380843180419344e-01 -1.946253263084470608e-01 2.781227311262109314e+00 -1.992937815484202346e+00 3.793877972307998281e+00 8.275646424749751873e-01 -2.664161375107529928e+00 3.430096155491453302e+00 2.589227595719003627e+00 3.095212512155254725e+00 -9.900655747896118797e-01 1.200727387061225837e+00 -3.412882618403753881e-03 -1.215969916302558351e+00 9.319246999768292516e-01 1.927731034379497776e+00 -4.830417269020689908e+00 6.835108626467956139e-01 -6.729723212940624144e+00 1.852228012704008497e+00 4.795949057191308817e+00 -2.462954024162113509e+00 -2.592535577319755813e+00 1.826776146185926208e+00 3.816018771901280804e+00 -7.333599290790207004e-01 -3.448950056531648878e-01 2.311468727142254931e+00 -8.161504861572550507e-01