-1.037772365839916517e+02 5.586802095996755702e-01 6.381072273580026266e-01 5.586802095996755702e-01 -8.089176889808393867e+01 3.109905552787931526e+01 6.381072273580026266e-01 3.109905552787931526e+01 -1.501521002995821732e+02
-9.678744185889472362e+01 2.636047916877086905e+01 -1.494127369851330833e+01 2.636047916877086905e+01 -3.944915943701239058e+01 3.989531704541828105e+01 -1.494127369851330833e+01 3.989531704541828105e+01 -4.939918398804835675e+01
-1.486739373164203748e+01 8.076820170288407041e+00 6.120207596683997053e+00 8.076820170288407041e+00 -5.233188604964826141e+01 -9.465475625927368242e+00 6.120207596683997053e+00 -9.465475625927368242e+00 -6.704305145471246874e+01
-3.088031179878028354e+01 4.313018069398726340e+01 1.471709715695731369e+01 4.313018069398726340e+01 -4.254241476193971749e+01 -3.729793453831790373e+01 1.471709715695731369e+01 -3.729793453831790373e+01 -6.454812192775111157e+01
3.995280756847390702e+00 3.445022874083971942e+01 1.862444758539555423e+01 3.445022874083971942e+01 -2.234503891356390426e+01 -1.129955822321809933e+01 1.862444758539555423e+01 -1.129955822321809933e+01 -2.683948724466453939e+01
-8.921764885855216676e+01 8.824069200341190466e+00 9.947017434646337364e+00 8.824069200341190466e+00 -5.508829172304741206e+01 -3.335825839516765257e+01 9.947017434646337364e+00 -3.335825839516765257e+01 -5.939436654735355603e+01
3.365239519513733057e+01 -2.204449987087610552e+01 -2.104898710947693985e+01 -2.204449987087610552e+01 -4.879395360384201297e+01 8.675353689270899338e+00 -2.104898710947693985e+01 8.675353689270899338e+00 -1.036818768468742036e+02
-7.802317186149556960e+01 -1.828498047558974449e+01 2.680379371944975020e+01 -1.828498047558974449e+01 -5.770681129412116306e+00 -1.398652775473061549e+00 2.680379371944975020e+01 -1.398652775473061549e+00 -5.460288548611000436e+01
-5.902520488855944336e+01 3.396215628020414812e+01 -3.183999144394837799e+01 3.396215628020414812e+01 -1.120146577862159489e+02 1.890302300709826966e+01 -3.183999144394837799e+01 1.890302300709826966e+01 -7.128861699404005492e+01
-4.929563154926671587e+01 9.824374544735594128e+00 -1.790781402758687335e+01 9.824374544735594128e+00 -5.158363426356450532e+01 -2.224845810176835670e+01 -1.790781402758687335e+01 -2.224845810176835670e+01 -6.851355486586029997e+01
-7.115482442558865728e+01 -3.432236381657910584e+01 1.150518744235937918e+00 -3.432236381657910584e+01 -8.066485708194568360e+01 -1.150056559264254119e+01 1.150518744235937918e+00 -1.150056559264254119e+01 -1.192679617235485807e+02
-1.142646516750601791e+02 5.303699800530738528e+00 1.382852472106431918e+01 5.303699800530738528e+00 -9.364150505921168133e+01 -8.029866798116822579e+00 1.382852472106431918e+01 -8.029866798116822579e+00 -1.143142540063187340e+02
-4.526296420981793034e+01 -2.422698903937518722e+01 1.298160929314861178e+01 -2.422698903937518722e+01 -8.528212660330056849e+01 1.387824732362301106e+01 1.298160929314861178e+01 1.387824732362301106e+01 -7.330942148659120505e+01
-4.210146846773036344e+01 -1.625418438693867174e+01 -7.302175540911146623e-01 -1.625418438693867174e+01 -3.255616606045408190e+01 -2.868243962979695283e+01 -7.302175540911146623e-01 -2.868243962979695283e+01 1.769083322789814616e+01
-6.069758321075693885e+01 1.957788970890488045e+01 3.250225142151909719e+00 1.957788970890488045e+01 -2.850587231739594785e+01 -2.785702142099383849e+01 3.250225142151909719e+00 -2.785702142099383849e+01 -9.558328281318482667e+00
-9.194806039759831151e+01 9.744561775756569233e+00 4.578791118202428123e+01 9.744561775756569233e+00 -3.642179751564500378e+01 -2.986382906809246407e+01 4.578791118202428123e+01 -2.986382906809246407e+01 -2.935022465723902485e+01
-3.432964783765250871e+01 -9.281819572661911266e+00 3.348741267091515539e+01 -9.281819572661911266e+00 -5.079189378319639303e+01 -1.335012941504067108e+01 3.348741267091515539e+01 -1.335012941504067108e+01 -4.956755672279491165e+01
-8.658450068831503188e+01 9.811445340286837791e+00 -2.642583526800241955e+01 9.811445340286837791e+00 -1.242211568787546838e+01 -7.699629086494774732e+00 -2.642583526800241955e+01 -7.699629086494774732e+00 -5.252828341431827397e+01
-7.721115940521696075e+01 6.824360586355223468e+00 5.075942714644468623e+01 6.824360586355223468e+00 -1.702737593142428238e+02 2.331526956686619201e+01 5.075942714644468623e+01 2.331526956686619201e+01 -3.705988004304568761e+01
2.794979767129854409e+01 -2.938612200186131318e+01 1.672076825147334844e+01 -2.938612200186131318e+01 -3.429729411575003439e+01 2.642169476073391721e+01 1.672076825147334844e+01 2.642169476073391721e+01 -1.081083690582702133e+02
2.709784127596752157e+01 -2.051536855101379686e+01 -2.164460262028605086e+01 -2.051536855101379686e+01 -1.000400124665429047e+02 8.985231325975972183e+00 -2.164460262028605086e+01 8.985231325975972183e+00 -7.783196251377385977e+01
-3.115045035075584323e+01 -1.129679686051648346e+01 2.730475548194350566e+00 -1.129679686051648346e+01 -2.368002989728258001e+01 -3.301259481698659126e+00 2.730475548194350566e+00 -3.301259481698659126e+00 -1.330740423358964009e+01
-8.998588897013590326e+01 -1.382060661968617987e+00 1.363085032676991482e+01 -1.382060661968617987e+00 -1.119531102209620741e+02 2.633132199204540669e+00 1.363085032676991482e+01 2.633132199204540669e+00 -3.136608817915877978e+01
-8.226641694434837859e+01 -2.011853157332278386e+01 -2.226421400209596513e+01 -2.011853157332278386e+01 -1.284063129948790163e+02 -3.410654082161217815e+01 -2.226421400209596513e+01 -3.410654082161217815e+01 -8.659818153327248069e+01
-5.911932864391172160e+01 -2.710242296863987121e+01 4.460958868987018633e+01 -2.710242296863987121e+01 -5.286680141934784416e+01 -1.501807029013982486e+01 4.460958868987018633e+01 -1.501807029013982486e+01 -9.256845904773500777e+00
-5.974907189782236827e+01 -2.196114436626285737e+01 2.783208459673294755e+01 -2.196114436626285737e+01 -6.167335819095809768e+01 -1.118347351154118385e+01 2.783208459673294755e+01 -1.118347351154118385e+01 -6.810002461142543950e+01
-5.202535163315376820e+01 -3.178024854470931970e+00 -6.807175151217591313e+00 -3.178024854470931970e+00 -7.034035426934933355e+01 -1.485728781683544497e+01 -6.807175151217591313e+00 -1.485728781683544497e+01 -2.613904860122690366e+01
-9.375688659827700633e+01 2.317035705863103701e+01 -9.476043215765850292e+00 2.317035705863103701e+01 -1.128360584007040757e+02 -6.918696273764129989e-01 -9.476043215765850292e+00 -6.918696273764129989e-01 -8.474122759557853612e+01
-8.910865430784254215e+01 3.742022417626886810e+00 3.151653045573152667e+01 3.742022417626886810e+00 1.506514109572841820e+00 -3.290984682663031435e+01 3.151653045573152667e+01 -3.290984682663031435e+01 -4.430467523004959673e+01
-2.293738860754710629e+01 -8.456523191253090488e+00 1.523276960522578882e+01 -8.456523191253090488e+00 -5.092646498360798546e+01 1.357001979737884412e+01 1.523276960522578882e+01 1.357001979737884412e+01 -8.131058391812727848e+01
-1.893259239926704751e+01 2.015930447411879811e+01 1.055207442649195571e+01 2.015930447411879811e+01 -8.772970031030403959e+01 4.758072918140752705e+01 1.055207442649195571e+01 4.758072918140752705e+01 -8.514593164346092635e+01
-4.237015179017829780e+01 -8.536044182567488647e+00 1.051144725407774239e+01 -8.536044182567488647e+00 -3.196589674782311619e+01 -1.916691144904477184e+01 1.051144725407774239e+01 -1.916691144904477184e+01 -5.251431549313941360e+01
-2.262975085762663241e+01 1.402860466654795957e+01 2.480468421272973956e+01 1.402860466654795957e+01 -9.970357451637104873e+01 2.391392164672283993e+00 2.480468421272973956e+01 2.391392164672283993e+00 -1.073779730800393928e+01
-9.379063104624741243e+01 3.239935230038184244e+01 5.732036847868206308e+01 3.239935230038184244e+01 -1.543761080468054825e+00 4.522751428166147392e+00 5.732036847868206308e+01 4.522751428166147392e+00 -5.767861188648869586e+01
-1.261037865775139011e+02 -2.621364977123030116e+01 3.846070152636081474e+01 -2.621364977123030116e+01 -5.733746659534202195e+01 4.059040889893819326e+01 3.846070152636081474e+01 4.059040889893819326e+01 -1.025823353902097494e+02
-2.889931646611270466e+01 -1.998078806963545873e+01 1.474503877183141043e+01 -1.998078806963545873e+01 9.679921102327955396e+01 1.156265812260053494e+01 1.474503877183141043e+01 1.156265812260053494e+01 2.495790940320831552e+01
1.535569527074875573e+01 7.977410255475778200e+00 5.431128581457010718e+00 7.977410255475778200e+00 -1.649442963948873597e+01 -7.781112890988489461e+00 5.431128581457010718e+00 -7.781112890988489461e+00 1.149934488163625268e+01
-8.149778733895223581e+01 8.849483712598935625e+00 6.511134281745298402e+00 8.849483712598935625e+00 -6.820126866564295653e+01 -8.751961899453176486e+00 6.511134281745298402e+00 -8.751961899453176486e+00 -1.290674557779673535e+02
-5.065465160760259522e+01 -1.534534884117931242e+01 -1.083341839960292141e+01 -1.534534884117931242e+01 -7.461137077982175470e+01 -1.609554878059366700e+01 -1.083341839960292141e+01 -1.609554878059366700e+01 -7.897225222743685435e+01
-1.358823274130868164e+01 -6.951002809010192962e+00 1.347373429353872964e+01 -6.951002809010192962e+00 -2.982929724387743065e+01 -2.111866826176717726e+00 1.347373429353872964e+01 -2.111866826176717726e+00 -9.341794917564148193e+01
-3.114957527972106632e+01 3.470436981868452619e+01 -5.977963527852282688e+00 3.470436981868452619e+01 -1.743631931936629655e+02 -1.243945121423608358e+00 -5.977963527852282688e+00 -1.243945121423608358e+00 -1.308146667377747576e+02
-1.366410706476886183e+01 -1.189374289073882629e+01 8.546977508828340619e-01 -1.189374289073882629e+01 -8.765619472976550242e+01 -8.592124385906393158e+00 8.546977508828340619e-01 -8.592124385906393158e+00 -6.943469594923722354e+01
-1.060399352308087799e+02 -6.462360389199820254e+00 -6.381852173124064720e+00 -6.462360389199820254e+00 1.150041693728435455e+01 1.369866138630609420e+01 -6.381852173124064720e+00 1.369866138630609420e+01 -3.698144867519123125e+01
-7.207307033245523087e+01 2.730232493822151163e+00 3.064406194588021215e+00 2.730232493822151163e+00 -8.954670709386769545e+01 -2.675147165295841134e+01 3.064406194588021215e+00 -2.675147165295841134e+01 -7.006687148999282044e+01
-2.517196397474298664e+01 4.900729983101341247e+01 -1.977920710240463364e+01 4.900729983101341247e+01 -4.753341643412994699e+01 -1.678019553675050801e+01 -1.977920710240463364e+01 -1.678019553675050801e+01 -9.117156325420253893e+01
-1.153592891792383597e+02 1.234287397028333899e+01 9.716294738716452883e+00 1.234287397028333899e+01 -9.010339220061831611e+01 3.090619678339696641e+00 9.716294738716452883e+00 3.090619678339696641e+00 -9.366724748305671255e+01
-1.798973207655243556e+01 1.281048025048913708e+01 -4.022662519309649909e+00 1.281048025048913708e+01 -1.767811870424909504e+00 -6.228574126710220149e+00 -4.022662519309649909e+00 -6.228574126710220149e+00 -4.549691261421317989e+01
-7.055845373009688615e+01 1.468948285186527203e+00 2.370288254288246854e+00 1.468948285186527203e+00 -1.013764025736956675e+01 8.239920455248093134e+00 2.370288254288246854e+00 8.239920455248093134e+00 -3.668448627165228260e+01
-8.806622140339442240e+01 -1.828862443455928144e+01 -5.814413036234427956e+00 -1.828862443455928144e+01 -1.104066994978778524e+02 4.446144309129933703e+01 -5.814413036234427956e+00 4.446144309129933703e+01 -5.483941465231947632e+01
-1.260870526876447002e+02 -2.940283104670745828e+01 -2.951893008337048041e+00 -2.940283104670745828e+01 -9.685947511610115157e+01 -1.735361877967833166e+01 -2.951893008337048041e+00 -1.735361877967833166e+01 -9.095109037958509646e+01
-7.625126331792620249e+01 -1.764174976112791526e+01 -1.928408039108928218e+00 -1.764174976112791526e+01 -3.836958402226093767e+01 4.221001193402077689e+01 -1.928408039108928218e+00 4.221001193402077689e+01 -5.243648609876637323e+01
-7.103019820711045895e+01 1.026604111137693565e+01 2.821146855871447912e+01 1.026604111137693565e+01 -8.142796119405727495e+01 -1.816876751922464450e+01 2.821146855871447912e+01 -1.816876751922464450e+01 7.294134873679178455e+00
-4.344428837140356592e+01 9.415212856199666192e+00 2.311911845919274455e+01 9.415212856199666192e+00 -8.562391793639413606e+01 -3.462939559810195789e+01 2.311911845919274455e+01 -3.462939559810195789e+01 -9.901956726152613442e+01
-7.111197603331929429e+01 -1.028760990076967552e+01 -4.505977717309694697e+01 -1.028760990076967552e+01 -8.339492357399745970e+01 -4.873186292683220344e+00 -4.505977717309694697e+01 -4.873186292683220344e+00 -1.966109436226269835e+01
-3.342348180108766798e+01 -3.109124849348620145e+01 7.949448894468268634e+00 -3.109124849348620145e+01 -5.905720152631248254e+01 2.774020660358204182e+01 7.949448894468268634e+00 2.774020660358204182e+01 -4.675604731680626713e+01
-2.342017669299755411e+01 8.606906576904334027e-01 -3.023060942579774135e+01 8.606906576904334027e-01 -8.591557400888397922e+01 -2.175968044711763483e+01 -3.023060942579774135e+01 -2.175968044711763483e+01 -1.140106965037154936e+02
-1.097768280844298232e+02 3.918192814870625096e+00 1.479064990891039244e+01 3.918192814870625096e+00 -5.424441819357468120e+01 2.277552129527321778e+00 1.479064990891039244e+01 2.277552129527321778e+00 -7.946444211798892709e+00
-8.333989266531691698e+00 -2.508451810264459958e+00 -1.720315059408013170e+01 -2.508451810264459958e+00 -7.609706057038427218e+01 -1.697385207508526861e+01 -1.720315059408013170e+01 -1.697385207508526861e+01 1.374827562599820929e+01
-9.203187677861336624e+00 -7.144236434572089678e+00 2.301021136745550422e+01 -7.144236434572089678e+00 -4.305355049105755683e+01 -1.182233069450643193e+01 2.301021136745550422e+01 -1.182233069450643193e+01 -5.891187059883802846e+01
4.927731395758248567e+01 -3.242601275484584988e+00 1.341491832613169954e+01 -3.242601275484584988e+00 -6.883517963361965997e+01 1.695852434912218243e+01 1.341491832613169954e+01 1.695852434912218243e+01 -8.934888776512372033e+01
-9.071027702655251801e+01 2.669318316656873247e+00 1.309579566453574273e+01 2.669318316656873247e+00 -2.689623670751785411e+01 1.940611449990090875e+01 1.309579566453574273e+01 1.940611449990090875e+01 -9.645736938421015338e+01
-5.390327917374637678e+01 2.304293079086437146e+01 -6.427384480041419579e+01 2.304293079086437146e+01 -6.245308372451282963e+01 -2.879317221864439702e+01 -6.427384480041419579e+01 -2.879317221864439702e+01 -5.857479460195558119e+01
-1.000597569628879455e+02 -2.093465647237366767e+01 -2.414581644721022435e+00 -2.093465647237366767e+01 -1.070655284978825073e+01 9.850063705754232402e+00 -2.414581644721022435e+00 9.850063705754232402e+00 2.080726182854227702e+01
-6.533004215302067053e+01 3.228014557323777467e+01 -1.086969147391229917e+01 3.228014557323777467e+01 2.169039686557185931e+01 -4.250730491871905770e+01 -1.086969147391229917e+01 -4.250730491871905770e+01 -1.455922058691989029e+01
-4.221776736410968311e+01 3.220844275443475624e+01 1.754392163519174375e+01 3.220844275443475624e+01 -3.499996999056172342e+01 1.003443069385435216e+01 1.754392163519174375e+01 1.003443069385435216e+01 -9.129837106949949543e+01
-9.105406670801420432e+01 1.225552239116890263e+00 -7.202262467608981034e+00 1.225552239116890263e+00 -6.058299269258590414e+01 1.229471500941763829e+01 -7.202262467608981034e+00 1.229471500941763829e+01 -7.125406028285006244e+01
-1.032073718978702992e+01 -5.892866846536067271e+01 1.392992507538324887e+01 -5.892866846536067271e+01 -6.680707696574822307e+01 3.758118797836671465e+00 1.392992507538324887e+01 3.758118797836671465e+00 7.828477796300663982e+00
-3.864555778819624265e+01 -1.467859461954589229e+01 -9.645854826528893255e+00 -1.467859461954589229e+01 -1.157270291539351774e+02 3.211189760638287538e+01 -9.645854826528893255e+00 3.211189760638287538e+01 -5.915954980085941628e+01
-2.501130048518674087e+01 -3.745410327831444164e+01 -1.434743883833122879e+01 -3.745410327831444164e+01 -2.544161094669503242e+01 1.303832751584592131e+01 -1.434743883833122879e+01 1.303832751584592131e+01 -1.378597560723256521e+01
-9.224726894510054365e+01 1.181737469510341310e+00 1.471522860846374847e+01 1.181737469510341310e+00 -4.436656095144433465e+01 1.445725268632420146e+01 1.471522860846374847e+01 1.445725268632420146e+01 -4.937708796360931984e+01
-4.929162799641018466e+01 1.035926260994413362e+01 -3.678369433155538104e+01 1.035926260994413362e+01 -9.354650230212742201e+01 -9.594673805883759954e+00 -3.678369433155538104e+01 -9.594673805883759954e+00 -6.431312475891871827e+01
-2.830228221805440825e+01 4.600105423943130489e+01 -2.382198685139142924e+01 4.600105423943130489e+01 -5.638937842949705015e+01 2.956669882232367996e+01 -2.382198685139142924e+01 2.956669882232367996e+01 -4.491709168629503779e+01
1.423254022842532862e+01 2.402581114885915881e+01 1.765414150594594744e+01 2.402581114885915881e+01 -3.217028347344584915e+01 -1.590075658174148820e+01 1.765414150594594744e+01 -1.590075658174148820e+01 -2.495584411636686539e+01
-5.919894384521885655e+01 4.091996373584222368e+01 -9.330454102291951823e-02 4.091996373584222368e+01 -7.805962663061058038e+01 -5.134007755601246004e+01 -9.330454102291951823e-02 -5.134007755601246004e+01 -7.131939950855384325e+01
-7.464903592572470359e+01 -2.623353076359850178e+01 1.360592231494927162e+01 -2.623353076359850178e+01 -4.784273588587311110e+01 1.472983781882452625e+01 1.360592231494927162e+01 1.472983781882452625e+01 -6.516050282568458840e+01
-2.770715150666049809e+01 -3.336597167436459621e+00 -1.501096030753473265e+01 -3.336597167436459621e+00 -4.457918745640363056e+01 -1.383968471052770788e+01 -1.501096030753473265e+01 -1.383968471052770788e+01 -4.825498549576244045e+01
-8.108056396864832038e+00 -2.724610802655613639e+01 -2.426599026765880751e+01 -2.724610802655613639e+01 -5.493652509586613775e+01 -5.301053623170286500e+00 -2.426599026765880751e+01 -5.301053623170286500e+00 -6.227181377477734969e+01
-5.515467041713998242e+01 5.969972393614532535e+01 -7.097233997021089813e+00 5.969972393614532535e+01 -5.228507397363787135e+01 -1.682801041227855166e+01 -7.097233997021089813e+00 -1.682801041227855166e+01 -5.794337577559200980e+01
-6.703874586906702859e+01 -5.169432757695124536e+01 8.727884595280842817e+00 -5.169432757695124536e+01 -5.894592015792696316e+01 8.273987938056297509e+00 8.727884595280842817e+00 8.273987938056297509e+00 -2.478461557609021781e+01
-2.855330664695957665e+01 1.134324724645810001e+01 3.002524956794221822e+01 1.134324724645810001e+01 3.232221394568258521e+00 2.001116921767842172e+01 3.002524956794221822e+01 2.001116921767842172e+01 -4.279489360886054783e+01
-6.740205671533432508e+01 -6.246574056034663869e+00 -1.466268604556204203e+01 -6.246574056034663869e+00 -5.402707618149695179e+01 2.581642165768712971e+01 -1.466268604556204203e+01 2.581642165768712971e+01 -8.426345243001306073e+01
-3.989797154953127034e+01 6.183522542668314775e-02 1.070832361669199884e+01 6.183522542668314775e-02 -8.364613814734565267e+01 5.532127028505120947e+00 1.070832361669199884e+01 5.532127028505120947e+00 -6.554381883584485990e+01
-5.273973792285735129e+01 2.782900784034161301e+00 3.923538718103085898e+01 2.782900784034161301e+00 -8.402707363135932894e+01 1.919051926503479777e+01 3.923538718103085898e+01 1.919051926503479777e+01 -4.570829922944948720e+01
-4.466353696892451097e+01 -6.325961424660281551e+00 -1.298182273008521470e+01 -6.325961424660281551e+00 -6.979391177149688019e+01 -1.085667334019760411e+01 -1.298182273008521470e+01 -1.085667334019760411e+01 -8.902690503659513865e+01
-3.085831642112672313e+01 1.019947592453815410e+01 -1.860062323013282537e+01 1.019947592453815410e+01 -4.424006856293168255e+01 5.627466756714653684e+00 -1.860062323013282537e+01 5.627466756714653684e+00 -8.323441868731856630e+01
-7.409635376783477057e+01 2.400809753414309355e+01 7.846946244700152562e+00 2.400809753414309355e+01 -1.124690315179523381e+01 9.618012446346433819e+00 7.846946244700152562e+00 9.618012446346433819e+00 -5.320450614712431303e+01
-2.547071767644423801e+01 -1.956534951707089220e+01 -2.903075247366878031e+01 -1.956534951707089220e+01 -2.716198342538441679e+01 2.504038037480380652e+01 -2.903075247366878031e+01 2.504038037480380652e+01 -6.291812422081999046e+01
-4.540684521992287870e+01 9.531065064291270872e+00 -2.226674821908206869e+00 9.531065064291270872e+00 -5.080216522970884441e+00 8.214668704291248957e+00 -2.226674821908206869e+00 8.214668704291248957e+00 -3.104042943472832405e+01
-2.118169353429911084e+01 1.241782807396004884e+01 9.047705224451240147e-01 1.241782807396004884e+01 -4.814896770648032032e+01 -1.939112296311294870e+01 9.047705224451240147e-01 -1.939112296311294870e+01 -1.058565862719525228e+02
-6.024026506435939865e+01 -2.868482824992965163e+01 -1.243678210036217147e+00 -2.868482824992965163e+01 -7.641579708973078766e+01 1.075769162537609702e+01 -1.243678210036217147e+00 1.075769162537609702e+01 -1.080036872130063728e+02
-7.633277902548840643e+01 2.062097430105792029e+01 -1.335227097476822777e+01 2.062097430105792029e+01 1.608839078580995974e+01 -3.866599042794005214e+01 -1.335227097476822777e+01 -3.866599042794005214e+01 -6.815618812987094088e+01
-1.236591565063289266e+02 1.902701569026142181e+01 2.357797414496727839e+01 1.902701569026142181e+01 -1.323426280492665228e+02 3.452142976252553286e+00 2.357797414496727839e+01 3.452142976252553286e+00 -5.491865177304228496e+01
-1.912232801149549033e+01 -1.407155778432486315e+01 1.001634705592229224e+01 -1.407155778432486315e+01 -4.044708361670478780e+01 -3.884050539674468450e-01 1.001634705592229224e+01 -3.884050539674468450e-01 -5.609750540544436603e+01
-7.769765870168748734e+01 -3.614114896806823651e+01 1.377708579868969530e+01 -3.614114896806823651e+01 -6.425972512493194699e+01 -1.669777599469687956e+01 1.377708579868969530e+01 -1.669777599469687956e+01 -6.720968173612476448e+01
-1.107842735999855677e+02 1.780958739461879770e+00 9.172908415318060449e+00 1.780958739461879770e+00 -1.156896472938497311e+02 6.434722169439630157e+00 9.172908415318060449e+00 6.434722169439630157e+00 -5.582932259932501040e+01
-7.651457087731654383e+01 -3.186804949348461946e+01 2.250296583322156430e+00 -3.186804949348461946e+01 -8.754298378261684377e+01 -3.084295796424173730e+01 2.250296583322156430e+00 -3.084295796424173730e+01 -7.114413107493997757e+01
-1.600095963283766665e+01 5.331845319728375188e+01 -1.417699928439064561e+00 5.331845319728375188e+01 -3.970879631970356627e+01 3.232160958852838917e+01 -1.417699928439064561e+00 3.232160958852838917e+01 -5.149329441928149009e+01
-6.809776766693941852e+01 3.297939816441071770e+01 1.659024945014904873e+01 3.297939816441071770e+01 -7.073375163721472347e+01 8.584388671228468937e+00 1.659024945014904873e+01 8.584388671228468937e+00 -6.543852615613742785e+01
-8.305912323582623458e+01 1.346078673825855354e+01 9.648968274666527734e+00 1.346078673825855354e+01 -1.545279293972560311e+02 1.573985478797810034e+00 9.648968274666527734e+00 1.573985478797810034e+00 -1.479396276535753714e+02
-7.283613654969876450e+00 -2.495507338908908324e+01 -1.644304247721499124e+01 -2.495507338908908324e+01 -6.096418479613304697e+01 -1.989435518682635617e+01 -1.644304247721499124e+01 -1.989435518682635617e+01 1.932097801048686847e+01
3.515963182792317099e+01 -3.634890062214975792e+00 2.836697613777914384e+01 -3.634890062214975792e+00 -4.516199466299679699e+01 -4.754585221366507852e+01 2.836697613777914384e+01 -4.754585221366507852e+01 3.222604447971772856e+01
-6.650265813013669458e+01 1.888068333945156496e+01 1.642245841448514554e+01 1.888068333945156496e+01 -8.433140849176253084e+01 -3.855860955303881177e+00 1.642245841448514554e+01 -3.855860955303881177e+00 -4.213169807987797810e+01
-2.216973559399545124e+01 2.675673480012329009e+01 -1.910325462700954802e+01 2.675673480012329009e+01 -7.760250543874185780e+01 2.223606120335981728e+01 -1.910325462700954802e+01 2.223606120335981728e+01 -2.347472023973311295e+01
-1.446058632896762219e+01 -3.034356010503643830e+01 -1.837168620647842587e+01 -3.034356010503643830e+01 5.758423111399386674e-01 9.547078140591365170e+00 -1.837168620647842587e+01 9.547078140591365170e+00 -4.663159113337528794e+01
-9.430800898503225937e+01 -2.406237204222592752e+01 -7.534877992491701093e+00 -2.406237204222592752e+01 -2.912227053055278958e+01 8.818804110318890110e+00 -7.534877992491701093e+00 8.818804110318890110e+00 -4.871454820956683562e+01
-5.457045201738580431e+01 3.461439214583786139e+01 -1.558007015808365736e+01 3.461439214583786139e+01 -1.342210893011804558e+02 2.644668964091159591e+00 -1.558007015808365736e+01 2.644668964091159591e+00 -6.619999159773765030e+01
-7.596301558525630071e+01 3.932220945494626818e+01 1.976948066780960644e+01 3.932220945494626818e+01 -5.527497590360967905e+01 1.097025672936981344e+01 1.976948066780960644e+01 1.097025672936981344e+01 -5.145626781550895146e+01
-4.869856048068885457e+01 3.886017629626120140e+01 2.954135703360822873e+01 3.886017629626120140e+01 -5.365764072436549981e+01 -1.354613320881631466e+01 2.954135703360822873e+01 -1.354613320881631466e+01 -1.602840926078805950e+01
-1.254411805363763079e+02 -1.139057256091487069e+01 -5.989958245381870050e+00 -1.139057256091487069e+01 -7.297454255515027910e+01 2.076352670515619891e+01 -5.989958245381870050e+00 2.076352670515619891e+01 -6.597747527521909205e+01
-4.920892832626913105e+01 3.406867515428448456e+01 1.618875351759833947e+01 3.406867515428448456e+01 -6.267831034408931856e+00 4.634668066347850335e+00 1.618875351759833947e+01 4.634668066347850335e+00 -4.628403158010263496e+01
9.433735905300977720e+00 -2.082544521048914987e+01 -1.014731237301799638e+01 -2.082544521048914987e+01 3.629875051249302942e+01 -1.118382832149004580e+00 -1.014731237301799638e+01 -1.118382832149004580e+00 -3.861831316256463964e+01
-6.000951269339790883e+01 -3.769528346747792469e+00 2.428767937692431289e+01 -3.769528346747792469e+00 -1.263265811219371848e+01 2.680060811829137357e+00 2.428767937692431289e+01 2.680060811829137357e+00 -8.373329412906741709e+01
-1.038904156676024826e+02 1.098655005299835175e+01 1.342886927877232495e+01 1.098655005299835175e+01 -6.935730541077390399e+01 5.106399882213697339e+01 1.342886927877232495e+01 5.106399882213697339e+01 -5.584307841767800085e+01
-3.154311576326994171e+01 -3.960191629468805985e+01 -4.136272725479895485e+01 -3.960191629468805985e+01 -1.134860273104758477e+02 -2.052311419201819831e+01 -4.136272725479895485e+01 -2.052311419201819831e+01 -8.969255547560577213e+01
-9.999049057327879098e+01 1.812757268426335955e+01 -1.063339038213891641e+01 1.812757268426335955e+01 -1.236036079603328375e+02 2.868781509034226929e+01 -1.063339038213891641e+01 2.868781509034226929e+01 -6.085570689896509577e+01
-2.851112527434277766e+01 3.389665809478938741e+01 1.018517538452347182e+01 3.389665809478938741e+01 -5.878490701314153455e+01 -1.575521301987502376e+01 1.018517538452347182e+01 -1.575521301987502376e+01 -7.848825894321521446e+01
-5.290757942994721219e+01 4.501838014155348233e+00 1.007050665306135961e+01 4.501838014155348233e+00 -8.080262407337987440e+01 7.731149438948252239e+00 1.007050665306135961e+01 7.731149438948252239e+00 -9.514383026652923547e+01
-7.499809953250581884e+01 -1.532153056690784254e+01 -2.191263465110495545e+01 -1.532153056690784254e+01 -6.814253698970347273e+01 -1.600078487677864203e+01 -2.191263465110495545e+01 -1.600078487677864203e+01 -1.252799192866558258e+02
-9.582471884737311996e+01 1.812093297122424929e+01 -2.935948410342767101e+00 1.812093297122424929e+01 -1.025938102127263107e+02 -3.365923446805165753e+01 -2.935948410342767101e+00 -3.365923446805165753e+01 -1.194537069908024733e+02
-7.029353953328167393e+01 -9.534095392099324329e+00 1.111078996283903741e+01 -9.534095392099324329e+00 -6.981206342291157796e+01 1.648889406419831616e+01 1.111078996283903741e+01 1.648889406419831616e+01 -8.084341485655282611e+01
-3.337037257181906824e+01 -3.323487773272059354e+00 -4.202855969359293198e+01 -3.323487773272059354e+00 -3.687633007931732010e+01 2.773510513569889113e+01 -4.202855969359293198e+01 2.773510513569889113e+01 5.952181752593094899e+00
-6.112223139667394634e+01 5.740816307311272126e+00 -8.431297177526090536e+00 5.740816307311272126e+00 -8.094247114505121488e+01 -3.620766024075896539e+00 -8.431297177526090536e+00 -3.620766024075896539e+00 -4.226607142923594296e+01
-4.815115680491669536e+01 1.244520032393805131e+01 1.442190151354859040e+01 1.244520032393805131e+01 -7.891499104468502424e+01 -4.058701588383718928e+01 1.442190151354859040e+01 -4.058701588383718928e+01 -2.594099131162236116e+00
-5.723849709972967048e+01 -2.740228366022984829e+01 -4.594998234666601178e+01 -2.740228366022984829e+01 -5.602616432075312503e+01 -5.072715049361352868e+00 -4.594998234666601178e+01 -5.072715049361352868e+00 2.053165114078405740e+00
-2.271797842408638601e+01 2.343467079311971446e+01 1.601087668815893039e+01 2.343467079311971446e+01 1.188551200472477376e+01 -4.359235550102337697e+01 1.601087668815893039e+01 -4.359235550102337697e+01 -3.897029846767382821e+01
-3.556604036612541364e+01 -2.043409670284416535e+01 1.792342851610393195e+00 -2.043409670284416535e+01 -4.315984376503704567e+01 -1.899209595602532019e+01 1.792342851610393195e+00 -1.899209595602532019e+01 -9.843613741159813912e+01
-7.550076322975102983e+01 -1.249234160312893138e+00 -1.156326692281215784e+01 -1.249234160312893138e+00 -6.538466104000642076e+01 1.023375256606686889e+01 -1.156326692281215784e+01 1.023375256606686889e+01 -3.797359771286997443e+01
6.047095273560838535e-01 3.284360045078157597e+00 -1.597193731238426828e+01 3.284360045078157597e+00 -2.544332873023715536e+01 -3.725328221912814541e+01 -1.597193731238426828e+01 -3.725328221912814541e+01 2.281697328885025300e+01
-9.129366593287610954e+01 -1.112963467839411713e+01 2.621053322670222130e+01 -1.112963467839411713e+01 -4.552258313406634471e+01 3.981298460813984974e+01 2.621053322670222130e+01 3.981298460813984974e+01 2.794561008924789292e+01
-8.508693534134179970e+01 1.106119244057552287e+01 -1.991481915360504118e+01 1.106119244057552287e+01 -7.485375796159470951e+01 3.513035132595297227e+01 -1.991481915360504118e+01 3.513035132595297227e+01 -3.104176748330215574e+01