1.856600000000000028e+00 3.277000000000000135e+00 8.790200000000000458e+00 1.003537000000000035e+01 1.457727000000000039e+01 9.934070000000000178e+00 5.367910000000000181e+00 7.105700000000000349e-01 1.005776999999999965e+01 6.395899999999999919e-01 4.500639999999999752e+00 1.398897000000000013e+01 1.439357000000000042e+01 9.732670000000000599e+00 1.299386999999999937e+01 8.300739999999999341e+00 1.370000000000000107e+00 1.049357000000000006e+01 1.069677000000000078e+01 6.586330000000000240e+00 6.212819999999999787e+00 3.055369999999999919e+00 5.521379999999999733e+00 4.562389999999999723e+00 1.206376999999999988e+01 3.921390000000000153e-01 6.329030000000000378e+00 5.694090000000000096e+00 1.200916999999999923e+01 1.120237000000000016e+01 9.291249999999999787e+00 6.048949999999999605e+00 1.225267000000000017e+01 1.149487000000000059e+01 5.022300000000000431e+00 8.099759999999999849e+00 1.189277000000000051e+01 3.709400000000000031e+00 5.376680000000000348e-01 3.639029999999999987e+00 6.458949999999999747e+00 6.923799999999999955e+00 6.230529999999999902e+00 1.098836999999999975e+01 9.255330000000000723e+00 9.390879999999999228e+00 9.074609999999999843e+00 6.007050000000000445e-01 6.209100000000000286e+00 4.405369999999999564e+00 2.801629999999999843e+00 1.381437000000000026e+01 1.820240000000000080e+00 1.121716999999999942e+01 6.982969999999999899e+00 1.317690000000000028e+00 1.462496999999999936e+01 1.054326999999999970e+01 1.569339999999999957e+00 5.971899999999999764e+00 3.546469999999999789e+00 1.349737000000000009e+01 1.139406999999999925e+01 6.347050000000000303e+00 8.269729999999999137e+00 1.291006999999999927e+01 9.463200000000000500e-01 2.231599999999999806e+00 6.678919999999999746e+00 3.563460000000000072e+00 7.900170000000000137e+00 4.140279999999999738e+00 7.802730000000000388e+00 3.920710000000000139e+00 1.007296999999999976e+01 1.365817000000000014e+01 9.919370000000000687e+00 4.386610000000000120e+00 6.349599999999999689e-02 1.266136999999999979e+01 1.022016999999999953e+01 1.102276999999999951e+01 8.205120000000000857e+00 9.164429999999999410e+00 9.219329999999999359e+00 2.615979999999999972e-01 1.458436999999999983e+01 1.083146999999999949e+01 1.385997000000000057e+01 3.705280000000000129e+00 4.057859999999999800e+00 3.385549999999999837e+00 9.963469999999999160e+00 1.395780000000000021e+00 7.482699999999999907e-01 1.376906999999999925e+01 6.370800000000000018e+00 6.684400000000000341e-01 7.762470000000000425e+00 6.790460000000000385e+00 9.966369999999999507e+00 7.271060000000000301e+00 8.112750000000000128e+00 9.958370000000000388e+00 1.699699999999999989e+00 6.742599999999999705e-01 8.549530000000000740e+00 5.039230000000000098e-01 7.283809999999999896e+00 5.428149999999999586e+00 8.237499999999999822e-01 9.072770000000000223e+00 9.265290000000000248e+00 8.094599999999999795e+00 1.263577000000000083e+01 2.115889999999999826e+00 1.340616999999999948e+01 6.199370000000000047e+00 5.440999999999999837e+00 4.350780000000000314e+00 6.312260000000000204e+00 8.802849999999999397e+00 1.024257000000000062e+01 3.379970000000000141e+00 5.136400000000000077e+00 1.133727000000000018e+01 6.023159999999999847e+00 1.633510000000000018e+00 1.661550000000000082e+00 4.537980000000000125e+00 1.339626999999999946e+01 5.663170000000000037e+00 1.250386999999999915e+01 1.496737000000000073e+01 1.304786999999999964e+01 9.020020000000000593e+00 8.833000000000000573e-03 2.290410000000000057e+00 2.974569999999999936e+00 1.412636999999999965e+01 1.325727000000000011e+01 3.242630000000000234e-01 2.500000000000000000e+00 2.909009999999999874e+00 4.146510000000000140e+00 1.108066999999999958e+01 1.432456999999999958e+01 1.173597000000000001e+01 8.076409999999999201e+00 1.154897000000000062e+01 1.508277000000000001e+01 6.444980000000000153e+00 4.812939999999999996e-01 8.707649999999999224e+00 1.583050000000000013e-01 6.229879999999999640e+00 1.035707000000000022e+01 1.333146999999999949e+01 1.423337000000000074e+01 6.109169999999999767e+00 1.248096999999999923e+01 1.337486999999999959e+01 1.251947000000000010e+01 8.526139999999999830e+00 1.385426999999999964e+01 4.943240000000000300e+00 7.035739999999999661e+00 9.087910000000000821e+00 5.022800000000000153e+00 7.581499999999999906e-01 5.717660000000000409e+00 5.623759999999999870e+00 4.928980000000000139e+00 9.809570000000000789e+00 6.444230000000000125e+00 1.349637000000000064e+01 4.566869999999999763e+00 2.163689999999999891e+00 1.401317000000000057e+01 9.310330000000000439e+00 4.003909999999999969e-01 2.420519999999999783e+00 1.268467000000000056e+01 3.724950000000000205e+00 1.037967000000000084e+01 3.290179999999999882e+00 1.209426999999999985e+01 1.242087000000000074e+01 1.460707000000000022e+01 1.215557000000000087e+01 4.695799999999999974e-02 1.050366999999999962e+01 1.910989999999999966e+00 5.751330000000000275e+00 9.599429999999999907e+00 6.377329999999999721e+00 1.000756999999999941e+01 3.256660000000000110e+00 6.885410000000000252e+00 1.430507000000000062e+01 2.944389999999999841e+00 5.694899999999999629e+00 8.587059999999999249e+00 5.218750000000000000e+00 6.203899999999999970e-01 1.076886999999999972e+01 1.165897000000000006e+01 1.308686999999999934e+01 1.403716999999999970e+01 4.818010000000000126e+00 8.605320000000000746e+00 6.836579999999999657e+00 1.892970000000000041e+00 6.867799999999999461e-01 1.353077000000000041e+01 5.031939999999999635e+00 1.469317000000000029e+01 1.008047000000000004e+01 2.229969999999999786e+00 1.642509999999999915e+00 5.017990000000000173e+00 2.611390000000000100e+00 1.036767000000000039e+01 5.497029999999999639e+00 4.347150000000000181e-01 2.374719999999999942e+00 9.501210000000000377e+00 1.300006999999999913e+01 1.759460000000000024e+00 1.502077000000000062e+01 6.864020000000000010e+00 5.372880000000000322e+00 1.421287000000000056e+01 1.465887000000000029e+01 6.603550000000000253e+00 8.365399999999999503e-01 1.231396999999999942e+01 1.479179999999999939e+00 7.667889999999999873e+00 8.114760000000000417e+00 1.398207000000000022e+01 1.182127000000000017e+01 3.417629999999999835e-01 4.057390000000000163e-01 9.278560000000000585e+00 6.547380000000000422e+00 1.488006999999999991e+01 7.281859999999999999e+00 5.764459999999999695e+00 1.429437000000000069e+01 1.419397000000000020e+01 1.419377000000000066e+01 2.633309999999999818e+00 2.612460000000000004e+00 1.246660000000000101e+00 1.026886999999999972e+01 1.316127000000000002e+01 5.884100000000000108e+00 1.080357000000000056e+01 1.164907000000000004e+01 7.957889999999999908e+00 1.295317000000000007e+01 7.777309999999999945e+00 3.443519999999999914e+00 2.647159999999999958e+00 1.217767000000000088e+01 4.455720000000000347e+00 8.566819999999999879e+00 5.361119999999999663e+00 1.400516999999999967e+01 9.984870000000000800e+00 2.035010000000000208e+00 8.245200000000000307e-01 1.398456999999999972e+01 1.127506999999999948e+01 6.261680000000000135e+00 1.009816999999999965e+01 4.725900000000000212e+00 1.023287000000000013e+01 8.802210000000000534e+00 8.200979999999999492e+00 1.358777000000000079e+01 1.470966999999999913e+01 5.683320000000000149e+00 3.845149999999999846e+00 2.626580000000000137e+00 4.557850000000000179e+00 1.461409999999999931e-01 1.295496999999999943e+01 7.840180000000000149e+00 1.037660000000000027e+00 3.886000000000000121e+00 7.160309999999999953e+00 1.261886999999999937e+01 1.259116999999999997e+01 7.762349999999999639e+00 6.983629999999999782e+00 1.469757000000000069e+01 1.038429999999999964e+00 6.528399999999999759e-01 8.320159999999999556e+00 6.599450000000000038e+00 4.774009999999999643e+00 1.414406999999999925e+01 2.871929999999999872e+00 5.336999999999999744e+00 1.193007000000000062e+01 3.730160000000000142e+00 6.449040000000000106e+00 9.233829999999999316e+00 1.337886999999999915e+01 1.177937000000000012e+01 5.099599999999999689e+00 2.006880000000000219e+00 3.334189999999999987e+00 1.338716999999999935e+01 1.203077000000000041e+01 8.312640000000000029e+00 1.404147000000000034e+01 7.073010000000000019e+00 7.487700000000000466e-01 6.102159999999999584e+00 2.387900000000000092e-02 1.145116999999999940e+01 1.302336999999999989e+01 2.645459999999999923e+00 1.210707000000000022e+01 1.228057000000000087e+01 8.822499999999999787e-01 1.372326999999999941e+01 1.361217000000000077e+01 6.322180000000000355e+00 3.598510000000000097e+00 1.053297000000000061e+01 5.910660000000000025e+00 7.581229999999999691e+00 7.884059999999999846e+00 1.458056999999999981e+01 2.116579999999999906e+00 1.120597000000000065e+01 1.496677000000000035e+01 9.354799999999999116e+00 6.870099999999999874e+00 4.493929999999999758e+00 1.656970000000000054e+00 9.894370000000000331e+00 1.064026999999999923e+01 8.057629999999999626e+00 1.483547000000000082e+01 2.683359999999999967e+00 6.427349999999999675e+00 9.206690000000000040e+00 1.325467000000000084e+01 1.302787000000000006e+01 7.362580000000000346e+00 1.076087000000000060e+01 2.617290000000000116e+00 1.248236999999999952e+01 7.736200000000000188e+00 1.276007000000000069e+01 8.881790000000000518e+00 4.819119999999999848e+00 9.332839999999999137e+00 6.566180000000000128e+00 1.236747000000000085e+01 1.220997000000000021e+01 8.327080000000000481e+00 2.539680000000000160e+00 9.800470000000000681e+00 3.743640000000000079e+00 3.701430000000000220e+00 1.115316999999999936e+01 1.397536999999999985e+01 1.097667000000000037e+01 1.450879999999999947e+00 6.184689999999999799e+00 8.526680000000000703e+00 1.161547000000000018e+01 1.453687000000000040e+01 1.015086999999999939e+01 1.152847000000000044e+01 1.982820000000000027e+00 2.387239999999999807e+00 2.318610000000000060e+00 5.047859999999999570e-01 5.544209999999999638e+00 2.801670000000000105e+00 1.495956999999999937e+01 5.154160000000000075e+00 1.498037000000000063e+01 2.694479999999999986e+00 5.784279999999999866e+00 1.047306999999999988e+01 1.260077000000000069e+01 4.559440000000000381e+00 7.397210000000000285e+00 1.028307000000000038e+01 5.365829999999999878e+00 1.140246999999999922e+01 9.914870000000000516e+00 1.463657000000000075e+01 3.161230000000000206e+00 5.067309999999999981e+00 7.514649999999999608e+00 1.343136999999999937e+01 6.777029999999999887e+00 6.587889999999999802e+00 5.076080000000000148e+00 1.284187000000000012e+01 3.113949999999999996e+00 5.299140000000000406e+00 1.333286999999999978e+01 7.133199999999999541e-01 1.028837000000000046e+01 3.404539999999999900e+00 1.367216999999999949e+01 9.745870000000000033e+00 7.080510000000000304e+00 1.471166999999999980e+01 4.517800000000000260e+00 1.388726999999999911e+01 1.249807000000000023e+01 1.001017000000000046e+01 5.824480000000000324e+00 1.270817000000000085e+01 5.538170000000000037e+00 7.307380000000000209e+00 9.042189999999999728e+00 1.359997000000000078e+01 7.405000000000000249e+00 5.073179999999999801e+00 1.471706999999999965e+01 3.254460000000000131e-01 9.120210000000000150e+00 1.381536999999999971e+01 9.675069999999999837e+00 1.426797000000000004e+01 6.452840000000000131e+00 4.242759999999999643e+00 1.485787000000000013e+01 5.410899999999999821e+00 5.312200000000000255e-02 3.206840000000000135e+00 4.226119999999999877e+00 4.587760000000000282e+00 2.250199999999999978e+00 1.788810000000000011e+00 1.169847000000000037e+01 1.463517000000000046e+01 1.166877000000000031e+01 5.310520000000000351e+00 1.107207000000000008e+01 1.376767000000000074e+01 1.061697000000000024e+01 1.200216999999999956e+01 1.473027000000000086e+01 1.196706999999999965e+01 1.187917000000000023e+01 8.770929999999999893e+00 1.515107000000000070e+01 1.055877000000000088e+01 6.584270000000000067e+00 1.243886999999999965e+01 7.983719999999999928e+00 2.202560000000000073e+00 1.005657000000000068e+01 1.378339999999999899e+00 1.470636999999999972e+01 3.607670000000000154e+00 8.930289999999999395e+00 3.088610000000000078e+00 7.211999999999999522e-01 8.307240000000000180e+00 5.632729999999999571e+00 4.411819999999999631e+00 1.772590000000000110e+00 4.594769999999999577e+00 6.032379999999999853e+00 2.015149999999999997e-01 8.995850000000000790e+00 1.030457000000000001e+01 1.282417000000000051e+01 4.537980000000000125e+00 1.127220000000000111e+00 8.913650000000000517e+00 7.795600000000000307e+00 1.140626999999999924e+01 8.680329999999999657e+00 1.027167000000000030e+01 2.795110000000000205e+00 6.749769999999999825e+00 4.123359999999999914e+00 1.200717000000000034e+01 1.111520000000000064e+00 7.404779999999999696e+00 1.301986999999999917e+01 9.920370000000000132e+00 1.347137000000000029e+01 9.605470000000000397e+00 7.776559999999999917e+00 1.249516999999999989e+01 1.110170000000000046e-01 1.553309999999999969e+00 1.462776999999999994e+01 9.671469999999999345e+00 9.382429999999999382e+00 1.917669999999999986e+00 1.178886999999999929e+01 5.024420000000000108e+00 2.849970000000000003e-01 6.821860000000000035e+00 1.984769999999999923e+00 5.953209999999999891e-01 7.374480000000000146e+00 2.389179999999999915e-01 7.009680000000000355e+00 1.440817000000000014e+01 1.266097000000000072e+01 1.441616999999999926e+01 3.451869999999999994e+00 1.232756999999999969e+01 5.569469999999999921e+00 1.003476999999999997e+01 1.447396999999999956e+01 3.203999999999999904e-02 1.250177000000000049e+01 1.367417000000000016e+01 3.667969999999999953e+00 8.720200000000000173e-01 2.695100000000000051e+00 7.972360000000000113e+00 3.808819999999999872e+00 5.387450000000000294e+00 5.768340000000000245e+00 1.988879999999999981e+00 1.170639999999999903e+00 6.257579999999999920e+00 4.796479999999999855e+00 7.099890000000000256e+00 7.626960000000000406e+00 5.424520000000000231e+00 1.008529999999999927e+00 7.005609999999999893e+00 7.910569999999999879e+00 2.516499999999999987e-02 1.461537000000000042e+01 5.178259999999999863e+00 1.318209999999999937e-01 2.006439999999999890e-01 6.070850000000000080e+00 9.582359999999999545e+00 6.127550000000000274e+00 1.287357000000000085e+01 1.434497000000000000e+01 6.192459999999999631e+00 1.510106999999999999e+01 1.916050000000000031e+00 1.156556999999999924e+01 2.587579999999999991e+00 1.088457000000000008e+01 3.700610000000000177e+00 2.588849999999999874e+00 4.802469999999999573e+00 1.583960000000000035e+00 4.935559999999999725e+00 1.066777000000000086e+01 3.216330000000000133e+00 9.241089999999999804e+00 6.987219999999999764e+00 5.692440000000000389e+00 1.152067000000000085e+01 4.852369999999999628e+00 9.517229999999999634e+00 1.354899999999999993e+00 4.743420000000000414e+00 8.785410000000000608e+00 9.728170000000000428e+00 8.222649999999999793e+00 8.800990000000000535e+00 1.046610000000000040e+00 7.258399999999999963e+00 3.221359999999999779e-01 1.307676999999999978e+01 8.580750000000000099e+00 4.629380000000000273e+00 2.805419999999999803e+00 2.602780000000000094e+00 9.336919999999999220e+00 8.490949999999999775e+00 6.760749999999999815e+00 3.227669999999999817e+00 1.500957000000000008e+01 5.985430000000000028e+00 5.270579999999999821e+00 1.594389999999999974e+00 7.170040000000000191e+00 9.542619999999999436e+00 2.327510000000000190e+00 4.424710000000000143e+00 3.849419999999999842e+00 1.273117000000000054e+01 1.202857000000000021e+01 3.678290000000000171e-01 9.672169999999999490e+00 1.317787000000000042e+01 1.055207000000000050e+01 6.857920000000000016e+00 4.163289999999999935e+00 4.169080000000000119e+00 1.181797000000000075e+01 1.351237000000000066e+01 1.365487000000000073e+01 1.483916999999999931e+01 1.882020000000000026e+00 1.888319999999999999e+00 1.054517000000000060e+01 3.414629999999999832e+00 6.316349999999999909e+00 1.471776999999999980e+01 9.997469999999999857e+00 3.610809999999999853e+00 1.232306999999999952e+01 7.946170000000000400e+00 1.508407000000000053e+01 1.391657000000000011e+01 7.636000000000000121e+00 6.740459999999999674e+00 4.929299999999999571e+00 4.121260000000000367e+00 8.970980000000000842e+00 8.908540000000000347e+00 2.670919999999999961e-01 9.850870000000000459e+00 9.278330000000000410e+00 1.335320000000000062e+00 1.897729999999999917e+00 1.218116999999999983e+01 7.839220000000000077e+00 8.315569999999999240e+00 6.399540000000000006e+00 1.343116999999999983e+01 1.413396999999999970e+01 3.225130000000000052e+00 1.464316999999999958e+01 1.193116999999999983e+01 6.622510000000000119e+00 4.426370000000000360e+00 1.051346999999999987e+01 2.473479999999999901e+00 1.443027000000000015e+01 7.851020000000000110e+00 1.137817000000000078e+01 8.745500000000000496e-01 5.260110000000000063e+00 1.062067000000000050e+01 3.352399999999999824e+00 9.967099999999999849e-01 1.464229999999999976e-01 9.086930000000000618e+00 1.558859999999999912e+00 2.313489999999999824e+00 7.029659999999999798e+00 7.158039999999999736e+00 3.078190000000000204e+00 1.036627000000000010e+01 1.413856999999999964e+01 1.400477000000000061e+01 1.223647000000000062e+01 7.209889999999999688e+00 9.196450000000000458e+00 1.217889999999999917e+00 5.977970000000000006e+00 5.512819999999999609e+00 1.187256999999999962e+01 9.911369999999999791e+00 9.404200000000000337e-01 1.199746999999999986e+01 1.085506999999999955e+01 9.698869999999999436e+00 8.327439999999999287e+00 1.469757000000000069e+01 3.005310000000000148e+00 3.181299999999999795e+00 8.058999999999999497e-02 1.268186999999999998e+01 3.016659999999999897e+00 1.473626999999999931e+01 8.057040000000000646e+00 9.875270000000000437e+00 2.743539999999999868e-01 1.176327000000000034e+01 7.387109999999999843e+00 5.935279999999999667e+00 4.425720000000000098e+00 8.148300000000000765e+00 5.341999999999999638e+00 1.019810000000000105e+00 1.379607000000000028e+01 9.952370000000000161e+00 6.913770000000000415e+00 1.019917000000000051e+01 1.009596999999999944e+01 1.335707000000000022e+01 1.118066999999999922e+01 5.060740000000000016e+00 1.394857000000000014e+01 1.482526999999999973e+01 1.295866999999999969e+01 8.183439999999999159e+00 1.493020000000000014e+00 1.195157000000000025e+01 3.478509999999999991e+00 5.700070000000000192e+00 1.250526999999999944e+01 7.990610000000000213e+00 5.557150000000000034e+00 1.258477000000000068e+01 5.710630000000000095e+00 8.297959999999999781e+00 9.137710000000000221e+00 1.461597000000000079e+01 1.372326999999999941e+01 4.172539999999999694e+00 1.538520000000000110e+00 1.262786999999999971e+01 4.549400000000000333e+00 6.562839999999999563e+00 1.690220000000000056e+00 2.979429999999999801e+00 9.850469999999999615e+00 6.291660000000000252e+00 1.481459999999999999e+00 1.104646999999999935e+01 1.242146999999999935e+01 6.681259999999999977e+00 1.710650000000000004e+00 1.450697000000000081e+01 1.398086999999999946e+01 1.441086999999999918e+01 1.478137000000000079e+01 3.821229999999999905e-01 2.854649999999999910e+00 8.161400000000000432e+00 1.292206999999999972e+01 6.287090000000000067e+00 1.310547000000000040e+01 3.091029999999999944e+00 1.615429999999999922e-01 3.779399999999999871e+00 1.309947000000000017e+01 1.523249999999999993e+00 1.721360000000000001e+00 1.289166999999999952e+01 2.025240000000000151e+00 1.009617000000000075e+01 1.167547000000000068e+01 1.002687000000000062e+01 5.246389999999999887e+00 1.425467000000000084e+01 6.367670000000000385e+00 1.084487000000000023e+01 8.052690000000000126e+00 1.993440000000000101e+00 5.005889999999999951e+00 1.419217000000000084e+01 5.857210000000000472e-01 1.425197000000000003e+01 6.318419999999999703e+00 5.151239999999999597e+00 5.390780000000000349e+00 3.264009999999999856e+00 8.014839999999999520e+00 9.357900000000000773e+00 7.387489999999999668e+00 3.923690000000000122e+00 1.356667000000000023e+01 1.392986999999999931e+01 6.565889999999999560e+00 8.761369999999999436e+00 4.013259999999999827e+00 5.130160000000000053e+00 6.267400000000000304e+00 1.008257000000000048e+01 6.130010000000000403e+00 1.462259999999999893e+00 1.361617000000000033e+01 4.858419999999999739e+00 1.715740000000000043e+00 1.047396999999999956e+01 4.211909999999999599e+00 1.214086999999999961e+01 1.171006999999999998e+01 7.546359999999999957e+00 6.795350000000000001e+00 1.110119999999999996e+00