-7.779712281716136204e+04
-7.780761942192238348e+04
-7.780851250948657980e+04
-7.779727713583532022e+04
-7.779949034226397634e+04
-7.779221745921317779e+04
-7.779922026727245247e+04
-7.779384911288737203e+04
-7.780898874044210243e+04
-7.781548197287654330e+04
-7.779911910661887669e+04
-7.780874024252130766e+04
-7.781107242806277645e+04
-7.780204627460906340e+04
-7.781156527956575155e+04
-7.779679052027838770e+04
-7.779862342871379224e+04
-7.779935737129329937e+04
-7.781056992180300585e+04
-7.780091145758384664e+04
-7.779679029601033835e+04
-7.780723447792859224e+04
-7.779198069966997718e+04
-7.780678159815390245e+04
-7.781621750083201914e+04
-7.780253533960045024e+04
-7.779818495539708238e+04
-7.778978020751404983e+04
-7.780844892362355313e+04
-7.780817524413652427e+04
-7.779958292071831238e+04
-7.780182436076395970e+04
-7.780460458747023949e+04
-7.780122942648772732e+04
-7.780164371170387312e+04
-7.780817259344426566e+04
-7.780097665820523980e+04
-7.780178126217873069e+04
-7.781760258989562863e+04
-7.781095522428074037e+04
-7.780295198694877035e+04
-7.779256014884362230e+04
-7.780576635966725007e+04
-7.780866778576782963e+04
-7.780009898653085111e+04
-7.779944708614994306e+04
-7.781572733954596333e+04
-7.779928818187439174e+04
-7.779765581252562697e+04
-7.778805636191007216e+04
-7.780744415624605608e+04
-7.779970005864823179e+04
-7.779954549383785343e+04
-7.780622431013542518e+04
-7.780864313654096622e+04
-7.780915101048364886e+04
-7.780391090854923823e+04
-7.779744733764595003e+04
-7.780712734781501058e+04
-7.781015373642616032e+04
-7.780220816837660095e+04
-7.781129284843454661e+04
-7.780074796930319280e+04
-7.779589831367635634e+04
-7.780536714568910247e+04
-7.780643311137915589e+04
-7.779113398151626461e+04
-7.779990045179624576e+04
-7.779830795509717427e+04
-7.779542716227330675e+04
-7.781160164877722855e+04
-7.780786040357883030e+04
-7.778328243942795962e+04
-7.781250135493178095e+04
-7.780139704535130295e+04
-7.779595755564561114e+04
-7.780793928772592335e+04
-7.780246452785254223e+04
-7.779174939965778321e+04
-7.780170263620186597e+04
-7.779984635726326087e+04
-7.779587906540537369e+04
-7.779612188295942906e+04
-7.780112743493916059e+04
-7.780628942642480251e+04
-7.780923635822911456e+04
-7.781619808277428092e+04
-7.779778803858940955e+04
-7.780633171179487545e+04
-7.780012989841605304e+04
-7.781496299479161098e+04
-7.781969685275781376e+04
-7.780317280618127552e+04
-7.781050409524147108e+04
-7.780802852685244579e+04
-7.780034941269605770e+04
-7.780676181312580593e+04
-7.781417353770864429e+04
-7.780439778404250683e+04
-7.779757389311291627e+04
-7.779710493413254153e+04
-7.780942183572992508e+04
-7.781157449683836603e+04
-7.781258341468719300e+04
-7.781017871703564015e+04
-7.779568645248767280e+04
-7.780502667524061690e+04
-7.781445777602207090e+04
-7.780592303902881395e+04
-7.778780544331212877e+04
-7.781979461939576140e+04
-7.781265418565379514e+04
-7.781980744657463219e+04
-7.780760915331622527e+04
-7.781341683347280195e+04
-7.781091148258071917e+04
-7.780429337677652074e+04
-7.780350225489682634e+04
-7.779859027782072371e+04
-7.780502128866263956e+04
-7.779305050487506378e+04
-7.780534213005847414e+04
-7.778966365983537980e+04
-7.779910671497022850e+04
-7.780468647436136962e+04
-7.780550649104520562e+04
-7.780357340167074290e+04
-7.780508211633152678e+04
-7.779793736508644361e+04
-7.780703749906031589e+04
-7.779753194433505996e+04
-7.781342920138408954e+04
-7.781610615757414780e+04
-7.780347622574253182e+04
-7.781906892203647294e+04
-7.781816499535768526e+04
-7.780380048754026939e+04
-7.780039720107332687e+04
-7.782494022825804132e+04
-7.780669430294839549e+04
-7.780034636074522859e+04
-7.779368324784569268e+04
-7.781904751529304485e+04
-7.780951114307518583e+04
-7.780550418123045529e+04
-7.780989366039700690e+04
-7.780260213851969456e+04
-7.779677096702379640e+04
-7.780395628561981721e+04
-7.781361012232804205e+04
-7.779617581020557554e+04
-7.781294139039125002e+04
-7.780371758963346656e+04
-7.780337155394263391e+04
-7.780103684035356855e+04
-7.779892656587841338e+04
-7.781126481881753716e+04
-7.781158433615810645e+04
-7.780254564760968788e+04
-7.780223349038588640e+04
-7.780620504188525956e+04
-7.781233177553674614e+04
-7.779546585148203303e+04
-7.780972065777245734e+04
-7.780090012110743555e+04
-7.780879802511593152e+04
-7.779453636223702051e+04
-7.779828554498511949e+04
-7.780874772128992481e+04
-7.780137893741007429e+04
-7.780913702627131715e+04
-7.781580623864443623e+04
-7.780381789290581946e+04
-7.779092344669628073e+04
-7.779150121869376744e+04
-7.780447517223781324e+04
-7.779079586711834418e+04
-7.780304095664517081e+04
-7.780709384522156324e+04
