-3.702725672837438697e+00 2.070671012226140473e+00 -2.141550161594158563e+00 -2.025475642900522288e+00 1.329940758215737651e+00 -6.791559277522255522e-01 3.945332416087370841e+00 -3.753170206811040188e+00 -4.950027054853322062e-01 1.788390601256198531e+00 5.807032373620518051e+00 6.172108998096117460e+00 4.226287166157772779e-01 -4.430108815013686363e-01 -4.704039310666821572e-02 2.173146965175661194e+00 -7.482281056691255650e-01 3.031202836781398791e+00 -3.868805581048428088e+00 5.120264951440447465e-01 3.536887448343588591e+00 -1.198672561244871648e+00 -3.776026801583591830e+00 1.001212336356454902e+00 3.137098357218096378e+00 -2.277970849726152380e+00 1.758324632623465167e+00 -5.210513765185448065e+00 1.864684494329473585e+00 2.387555389283600782e+00 4.743382334492959873e-01 4.709700880295965009e-01 -2.921885177754152352e+00 -9.308062700092190056e-02 9.283035579851461883e-01 2.190989394148597391e+00 -6.925066391311039959e-01 -1.228938047499413155e+00 -5.318783442477526435e+00 -1.031637231020172685e+00 6.340680305476333878e-01 -1.383632595750468708e+00 7.255741138424302017e-01 1.918912149807308343e-01 5.717727154813707635e+00 -2.817835709539855404e+00 2.573960383885282255e+00 -5.496797898329096599e-01 -4.581891331583557436e-01 2.571485953998321694e+00 3.874083027833523651e+00 -2.419137794686210707e+00 -2.208936209918509253e+00 -2.087602242163395239e-01 1.588936742811724312e-01 -3.422615787335672621e+00 4.256826732031962490e-01 -1.996967248691647434e+00 4.056271412902145990e+00 2.257638564246012614e+00 2.631392662608241118e+00 -4.639175514752184704e+00 -7.486912642308848120e+00 -3.170863629385075821e+00 -2.922264672612127911e-02 9.860921916357161532e-01 5.245436548091320095e-01 -2.223800786963891163e+00 2.666705739006259179e+00 9.722365155542199711e-01 2.537177664798791366e+00 -7.796181925393740331e-01 3.381473505368538746e+00 -1.616297396474527748e+00 -3.169128134607750003e+00 -1.614214802741736676e+00 7.908852817441117677e-01 2.132241224718919081e+00 -2.019235060791595870e+00 4.657481770773756580e+00 -2.736178494828799046e+00 8.612029021352883840e-01 -2.215446757881687212e+00 -7.920034031793169227e+00 1.926002738691618532e+00 -7.140668835825779714e-01 3.312993709668965892e+00 1.783021623190994998e+00 -2.601799262775615684e+00 1.527967654287743837e+00 -6.605185136161060289e-01 -5.661729551773339253e+00 -5.764586028022185005e+00 -2.636920020641271734e+00 -1.816453680360728518e+00 1.829995167609944184e+00 3.075005182299082929e+00 -3.398129627244796058e+00 1.523380291648180673e+00 2.981734293648498624e-01 -4.687099853198771093e+00 -6.092594026716124489e+00 1.447590849056848317e+00 2.550909413697669770e+00 -1.436412205808169640e+00 -3.134015604272890054e-01 -2.047381957866112323e+00 -2.341888479599225192e+00 -7.567811381524629510e-01 1.783507561728646218e+00 -4.138612541110636700e-01 4.601033196201619546e+00 2.774793896400146398e+00 1.536121651527464715e+00 1.970118244600233548e-01 3.785701349358587819e+00 1.619819808096656155e+00 7.083492638998852009e-02 5.051338812195179662e-01 1.882916702573879941e-01 3.663513775283366858e-01 3.470494874362879845e+00 1.802353235238045359e+00 9.460313157476096801e-01 -5.232094064243238307e+00 1.274611127831885682e+00 -1.867952880938269222e-01 2.553598787826681704e+00 -1.981764828662946565e+00 -1.876546536854912572e+00 -1.536279517274617090e+00 -1.303757155677467194e+00 -5.393151579123813821e-01 -4.397057795363952692e+00 -3.869454013319303609e+00 3.270007946582806024e+00 2.935012717360183654e+00 2.381355944828655036e-01 -1.755320555441498342e+00 3.199661015613167958e+00 8.418286097722331718e-01 2.572882577350978917e-01 2.273349034301379856e-01 1.020297636700293387e+00 -7.834820466895451307e-01 -1.908161338160032416e+00 -3.282460828663547936e+00 6.477771537368218757e-01 9.725111093945437712e-01 -7.699683273567667352e-02 3.641078327243445489e+00 -4.860058491376067380e+00 -4.190050549427880355e+00 -4.717871846817953241e+00 -8.657503098284223597e+00 5.816864272921992374e+00 -8.035885892934632180e-01 2.803623678530748342e-01 1.694014138154873006e+00 -3.036245284718127380e+00 -5.036562681105857919e+00 1.549706847534035425e+00 1.432549894320022998e+00 2.991178984781875272e+00 2.142149742900932630e+00 2.283993916489654108e+00 5.475675769892520250e+00 -6.852039342184536252e+00 -2.662275727893173460e+00 2.225210780054092119e+00 -3.481531078484648850e-02 -1.885282631898465677e+00 5.332442686261262832e-01 -7.752154351220510442e-01 -5.246408425166622091e-01 -1.135242926792148888e+00 -6.918818610112666967e-01 1.625533314013950958e+00 -3.515572487153976744e-01 -2.678947276389672894e+00 1.349248201891073695e-01 3.485582623181108008e+00 1.525492195959433639e-01 -2.328957886511628494e+00 -6.435076308963300740e+00 7.169670881882427294e-01 -1.012314463568728762e+01 2.826851026409804568e+00 -5.787565521536005342e+00 -1.324670510520089106e+00 -1.270389376092079470e+00 -1.272839637607326324e+00 -9.151448051841567732e+00 1.239649264154731867e+00 -9.738225778034598434e+00 -3.223118734354518455e+00 -9.277379152429066078e-01 2.064652059228036407e+00 2.846909746490970061e+00 -6.041059344912025342e-01 1.960695150735196846e+00 1.444334803744247164e+00 2.790248284559481373e+00 -6.675833914666783331e-01 3.783820844350978430e+00 3.618493755207842777e-01 -5.526661264015972463e+00 4.570753825988859376e+00 -9.695908501825631909e-01 4.935078659837954101e-02 2.295391617745781598e+00 -2.449740609703396910e+00 3.363984860219840556e+00 -6.108172856278752505e+00 3.626436921970911165e+00 1.105877840939118339e+00 -1.107837021709966348e-02 1.932100881673636250e+00 -3.261526904993935494e-01 7.203372904906411023e+00 -2.700065805281524955e+00 2.971214367084191732e+00 3.659769734550414544e+00 2.613973951471310619e-01 5.708199159931020006e-01 1.646705321855978399e+00 -1.187034204712954955e+00 -3.138239927116070582e+00 -1.791071747854414253e+00 2.488313845179412898e-02 -6.821034406599685296e-01 -2.211016232547927451e+00 2.408473372112295507e+00 1.357522526768689453e+00 2.499194240436728442e+00 2.843350310980258921e+00 1.489751802180687923e+00 3.509804988065831743e+00 -1.302202152356983111e+00 2.811452174083344246e+00 2.618633305005340528e+00 1.738985307266293967e+00 -3.435503185886589761e-01 3.624956994868942406e+00 -5.862290527330578094e-01 3.402090154881822315e+00 1.473779079581191365e+00 -6.478213767148516267e-01 1.847934270069735152e-01 5.129623767721138705e-01 -9.201973832681781262e-01 2.044038495038801972e+00 1.860090446821138555e+00 6.775957822249938367e-01 3.153082906893111548e-01 -4.575304164739840695e-01 3.746719822666809696e-01 -4.662953078753237501e-03 2.563102614337656071e+00 5.321798318293663455e-01 -2.765781150633570995e+00 2.325654018676274415e+00 -3.597304778083547649e+00 2.210118403249790031e+00 5.948122185479362223e+00 -6.196247030790178911e+00 1.251036680997364092e+00 -2.005180895529640850e+00 -1.898858571932890538e+00 -1.232283567209422781e+00 -2.574049858282690950e-01 -1.619439799018006276e+00 -4.131212905600793461e-01 2.769734993401824941e+00 -6.390945376434443714e-01 -1.311322884465259131e+00 1.426073799142054233e+00 2.729948711354042601e+00 -6.141753009002817620e+00 -1.642132871615983591e-01 3.379687616965086239e+00 2.722654491082525663e-01 3.184622631979716623e+00 2.276768087567880627e+00 2.871201531166786225e+00 -2.276256952217166063e+00 -1.146624172986684176e+00 6.508156837039980047e-01 2.402841113061613409e+00 -3.562557344427769834e+00 -2.218934716718606648e+00 -1.189920011139726563e+00 1.950690987507677499e-01 4.931888948992397381e+00 3.818067941290211875e-01 -2.253672380181563906e+00 1.310515043785206002e+00 2.060473502024910086e+00 -9.914663119076668751e-01 -2.062020277814597957e+00 -1.861504039456063131e+00 2.296491535769100256e+00 -2.582400287820171503e+00 7.758196444148978133e-01 1.272320274725815548e+00 -1.403775648022295153e+00 2.675675290236154136e-01 -2.387703999058607529e+00 -2.097865058390320225e+00 1.819220701811629759e+00 -1.090067097852172262e+00 -8.108036195810666147e-01 -1.141702052687850522e+00 -1.480434637774652229e+00 1.641635620223487413e+00 -4.869654363387824425e+00 2.574094595481395409e+00 7.634195727974542045e+00 -3.828605865578134981e+00 1.767889137174062153e+00 3.094050373430289547e+00 -7.423695895215477458e-01 -1.155604008630075175e+00 -3.860146619106089583e-01 -1.626611120548254741e+00 -1.764817182863026357e+00 1.675230171126446121e+00 -1.653948120060018789e+00 1.811595323425565063e+00 1.210745434246963681e+00 -5.301859411629718188e+00 3.921292085321513632e+00 -2.928191065888773981e+00 9.010596324155140113e-01 3.689548768046629901e-01 -4.037975441294069157e+00 -2.992084527390133530e+00 -6.272186111597867209e-01 -1.498775346581433521e+00 6.624021039477636652e-01 -7.638136201005252257e-01 2.937720603433486843e+00 -3.913939243893073683e-01 -1.346581967692426218e+00 5.123201151493345096e-01 -5.983662033194950824e-01 -1.319823466439770554e+00 5.893724837178855314e-01 -1.268921790286305085e-01 -1.972124219452484839e+00 -2.223644463878763133e+00 3.122286230681540209e-01 5.273209606735282939e-01 9.651731803656719011e-01 5.702594154576100527e-01 -3.384294519990290073e+00 -1.213730485263964542e+00 -3.468120203286822356e+00 -5.882067454481973989e-01 -6.774392534515958353e+00 1.008278756869051690e-01 -2.235085359671571403e+00 5.133892827763022915e+00 2.535057018736067924e+00 -1.568824543780383829e+00 -6.628457735459495126e+00 -2.283913183843716777e+00 3.532089769448047090e+00 2.987313587969680009e-02 -7.185508878665135546e-01 5.702483597131026372e+00 5.293605655579093572e+00 4.416155951224659759e+00 -1.764188290977790841e+00 2.123292756536688586e+00 1.170983320570894576e-01 -7.850555619543206909e-01 -3.781980962776675170e+00 1.851164090127923378e+00 -2.511006403556715894e-01 5.122462216383710576e+00 -2.187161021224984569e+00 -8.421309715289939657e-01 8.728150334127924292e-01 -4.876306322036562335e+00 1.420925421746324746e+00 -4.614096972443980094e-01 6.891570056556960422e-01 9.562041433564512083e-01 5.209559371613086132e-01 7.241518308781024871e+00 -8.957287066802432918e-01 7.080099296766089623e+00 -1.752540164253053367e+00 -1.035875437821571543e+00 -1.791582368984454110e+00 -2.426279291417323236e+00 2.341601544462707185e+00 4.228591903222061354e+00 1.351128192678008322e+00 4.100112839191111802e-01 -8.605894368702957653e-01 2.218107849873587334e+00 4.139471289637491336e-01 -2.182741294525394338e+00 1.900206344321444751e+00 -3.465173204599754975e+00 -1.187761826967745016e+00 -1.465365400900714876e+00 1.748902052979103505e+00 6.659594825757759740e-01 8.052340954527057448e-01 3.418340556645691031e+00 2.197578103654338477e+00 7.694294240896147885e-01 -4.650020428782941084e-01 4.562462017608301501e+00 -8.461881726528760472e-01 -9.719115280877698160e-01 -1.709869618440523320e+00 1.839514420741161560e+00 -5.192615800379637436e-01 -3.568175719520233713e+00 -8.640979645342057314e-01 2.918135480593778475e+00 -2.044238012660609671e-01 3.088552840196395977e+00 -5.584741460789134138e+00 -1.242035248085633148e+00 2.604312259213183545e+00 -1.451896932987315758e-01 -9.913752948482338345e-01 -1.607163294628708217e+00 1.901086175895964958e+00 -4.293377537594135207e-01 -2.594296268910145198e+00 -2.680159294520089719e-01 -4.520524236257310036e-01 1.270529758336289561e+00 -5.504947267582743997e+00 6.289098829590830109e-01 -8.843613444439265558e-01 -3.113496656687811726e+00 -4.901665114612512753e+00 2.773631243454506734e+00 -1.485219975373999413e+00 4.496362549412208587e+00 1.902420578546975438e+00 2.432524501512322690e+00 1.229439412657307162e+00 1.930454347073044419e+00 2.854043529911960864e+00 1.847125915169007593e+00 1.542325209747808845e+00 1.582972297205145429e+00 -1.028785877378610492e+00 1.644841786130636585e+00 -1.412659324399505145e+00 -1.553313591346824785e+00 -6.164266618585302338e-01 -1.776069873888870942e+00 -1.221555895492511423e+00 -1.443066221339606159e+00 2.057141352052444194e+00 4.533270738343341044e+00 -1.847479698993244712e+00 4.282451376696765344e+00 1.787716457951583848e+00 -1.684784391263547398e+00 -3.823776819221433421e+00 1.884659910661327098e+00 -3.345922344798105907e+00 -1.363306480918426544e+00 -2.087612012356215629e+00 3.973405779605395871e+00 2.969027900775098039e-01 -2.359706740200446795e+00 7.097088633639593303e-01 -3.922809550532739831e-01 1.157366242882488683e+00 4.449042420258469410e-01 1.258411119694144098e+00 -7.433476372449474567e-01 -2.685742702606669141e+00 1.900801297642146226e+00 -4.615829896117932263e-01 3.520861761014590918e+00 -3.588766657999779008e-01 1.215582245335854417e+01 1.157382183723406482e-01 3.556174323191933606e+00 -1.859137595910802521e+00 -1.165559320893491790e+00 1.245567944121257042e+00 4.017770682541271232e-01 1.035180725689966330e+00 -3.218257806315981462e+00 1.147106511979612220e+00 -1.996790356779529096e+00 -3.854258792380050203e+00 -8.403162867677543835e-01 1.222662498384602170e+00 -1.333884316570497441e+00 1.573987833575681616e+00 -2.286951199590217421e+00 -5.149390410459038225e-01 -1.186579119415789307e+00 -3.118840952160626401e-01 3.867416156785216774e+00 2.435439618517555527e+00 5.383921318011813950e-01 2.719204070354864222e-01 1.016898638040108160e+00 5.988897828105390175e+00 -1.942712339518050779e+00 -1.260309108204695328e+00 2.659313816806536668e+00 8.286229086236378549e-01 -3.869855105445619281e-01 4.253727524025164186e+00 3.211797137758255705e+00 8.381231355898891011e-02 2.157489974070470051e-01 -4.313201773047608434e+00 -3.440354343732306308e+00 -6.251412110558106860e+00 1.734156775130266892e+00 -4.880432428730862582e-01 3.526151549095880799e+00 -3.820500205081842071e-01 1.855614155847324476e+00 -6.712770385735028489e-01 1.947582009308058915e+00 2.243122114597445815e+00 -3.080505800857025633e+00 8.594072435390152087e-01 1.326149923401382935e+00 -3.494531605584013434e+00 -4.128221169715021510e+00 1.357136861262616900e+00 -7.021698226291876566e+00 3.864751465248594364e+00 -6.123173701802945956e+00 -1.303817319496414662e+00 4.283650025089639435e+00 -1.009766911501816633e+00 1.651640811892356453e-01 -4.244048862484770090e+00 -5.088918059106878333e-01 5.165408384477913062e-01 -1.427862258648880944e-01 1.760208222955123247e+00 -8.064589690999919291e-01 1.454818220640645920e+00 -3.506395704992151696e+00 -1.137486985816815954e+00 -7.108612318961038401e-01 -3.222726383979674036e+00 -3.645768019797285819e-01 3.853697263403208506e+00 5.160970660054706727e-01 -1.236409159683048209e+00 2.274819705431202710e+00 -2.254301786287474130e+00 9.264465014403061360e+00 2.602972200134750391e+00 -4.949075746605010595e-01 2.234391161760640898e+00 -1.996569241889380786e+00 -3.453022684275773302e-01 -3.772644257984998806e+00 -1.076530238589029631e+00 2.975486512450124452e-02 2.270955337060356793e+00 -2.750869779506786017e-01 1.876908548209945904e+00 -1.898024505998424205e+00 1.132602403627239740e+00 -1.400596221590233892e+00 1.088088376695683257e+00 1.533784004339991069e+00 1.771665059588848623e-01 5.474491005457866599e-01 2.656640897739117158e+00 -4.803763668785684615e+00 3.453804813922088712e+00 1.134225284076792573e+00 7.133305195763169904e-01 -1.097290355670571815e-01 3.561800925815193641e-02 4.555416165922696159e+00 9.466026149172716009e-01 1.272043109782118042e-01 -8.658092909398178438e-01 -2.614535480448152427e+00 1.148163235466250764e+00 -5.631508288496827497e+00 1.237862861530604208e+00 3.604492554675388760e+00 5.175821353141869530e-01 -2.602286229754616542e+00 -8.050870283397234539e-01 4.743286175226778312e+00 -5.308135474965204326e-01 2.112264779945715709e+00 -1.453830402724425597e-01 -1.365574708314807317e+00 1.810035692119008610e+00 -1.909625838641758167e+00 9.010966563040969657e-01 1.540450875388296448e-01 1.387875944758615088e+00 -1.143789274406714407e+00 -1.266471528771057953e+00 -2.366674944564163829e-01 3.306757755546111621e+00 -1.746394712968957874e+00 -1.890069512159836818e-01 8.974215211415639271e-01 4.430833866165102136e-02 -3.246840762522697155e+00 -2.671747158501637465e+00 3.345472401707688448e+00 -4.525122911751717325e+00 9.163803231994106513e-01 3.683995184759186747e-01 5.584277119519822641e-01 -1.613201788012453175e+00 -7.408079013322917961e-01 1.055995350163033697e+00 6.039547536128221372e-01 -9.043794410917855853e-01 8.729502734502552208e-01 1.454375476639674591e+00 1.248484603788514002e+00 -1.792618523644101902e+00 -1.338126637137293962e+00 1.515232979277231662e+00 5.381576471734892397e-01 -6.314743014641275298e-01 3.244449636385047686e+00 4.309797117960001422e+00 -1.575482158856543524e+00 -2.013045386529470071e-01 3.268551159411202001e+00 2.897972373715636429e+00 -5.504974007057832353e-01 9.816585809779073690e-01 -1.328218633175955565e+00 8.188079786044316632e-01 1.078855030259634251e+00 9.145116452673207608e-01 -9.211862296257480320e-01 -4.639350349781603988e+00 -1.721567110350038066e+00 -4.124720869581906868e+00 1.490822409625544909e+00 1.551206829242319785e+00 2.962718413095753456e-01 9.588055857500785151e-02 2.579763364199985531e+00 -2.301491817610498369e+00 -2.331491965996861648e-01 -1.942861977734406942e+00 -1.619301473656495072e-01 3.970066430543482960e-01 -9.473009265935999901e-01 1.278025038891639209e+00 -4.021205676648689472e-04 3.886606872367381893e+00 1.020190935910279961e+01 -2.388480986498174641e+00 2.225032859700623675e-03 2.287273615953294481e+00 -1.289131177025175878e+00 1.188263192125639245e+00 -7.768519938415525239e+00 6.428199635879691343e+00 -7.057190251484711796e-01 -5.372608463167021231e-01 -6.752236822523108861e-01 -4.110782918192449342e-01 -1.157614611468399390e+00 4.363265269501209742e-02 -1.286698399012870808e-01 -1.321070451576071392e+00 -8.546949252754846293e-01 1.848480886647008381e+00 -9.931606690310118557e-02 6.074340221203378576e+00 -2.848358306131778317e+00 -1.457602211373813850e+00 3.405539547168134340e-01 -1.588158726930807507e+00 -1.112040261505481187e+00 -2.781482878937466818e+00 -2.730821343839115567e+00 2.159601364161047865e+00 -2.060692560032359122e+00 9.871360596054855607e-01 -5.102147414406513981e+00 2.205876596903668663e+00 -9.773704947710564195e-01 -2.864126368902718767e+00 4.937418363908126495e-01 1.165505841943316412e+00 -3.268402549636195253e+00 2.529654102106330349e+00 -3.150958661285665041e+00 -1.792451401924803900e+00 -1.559357226937317487e+00 3.296784445559078236e+00 4.821027085278838165e+00 2.404254705696537542e+00 5.262672710888709027e+00 1.531018525551114173e+00 1.548461919280433641e+00 1.555394128196916914e-01 8.826083661636585989e-03 2.207393547894219932e+00 1.695145937860027097e+00 -1.435138481196781245e-02 3.926837441078160573e+00 -8.413646284573941259e+00 4.362381324161291651e+00 -1.096726255590356525e+00 -4.120748514869361223e+00 -2.314111307189863631e-01 -4.818581965970338277e-01 1.670200064485911629e+00 -1.545544745392501307e+00 -2.686166934663348993e+00 -9.917013107560336271e-01 -2.951852416017330949e+00 3.369683967958241766e+00 6.878195176806368716e-01 3.975479631586716689e+00 -1.552123684705422502e+00 -5.312706896763849107e-01 1.823682594606550467e+00 -2.541916208316735148e-01 2.193372292755449982e-01 8.768490946063101435e-03 -7.870085720770715332e-01 -1.183327702089261413e+00 1.024065331584283589e+00 1.653209699171058977e+00 -1.350955414531287868e+00 -4.598373646871744214e+00 -4.165997877365829716e+00 4.690213973605136921e+00 -1.598309443050634382e+00 1.077426011004467110e+00 -3.024624925909827233e+00 1.953611760940332787e-01 5.055024745991882895e+00 -5.941311332642123411e+00 1.346145908560226978e+00 -5.109970253531685991e-01 -1.921968677498100631e+00 3.916554570244919820e+00 -5.461961504496585462e+00 4.319967888686143849e-03 -8.743916340016164579e-01 1.403236744755143262e+00 2.978483904763320034e+00 -3.210886452943250147e-01 -2.250940839957221495e+00 3.282906143767893248e+00 -1.098351707143283118e+00 5.694320343919160310e-01 -9.871026352616258936e-01 -1.503145708096246258e+00 -3.907845728897129112e-01 2.648659164425442025e+00 -1.233902333893577508e+00 2.766739143750654772e+00 -1.532086561892597398e+00 3.333819646996877939e+00 -1.892306372095057032e+00 1.148888286617666843e+00 -3.978318129711410300e+00 2.614775621503266478e+00 1.393519516664141866e+00 -3.335842076910722209e-01 -4.775466105053463473e+00 -3.318248016523696720e+00 6.224305996129310792e+00 7.512810338151950651e-01 -7.401589548407405683e-02 3.729743855530849750e+00 -2.320667620793094854e-01 -2.197602786246727558e+00 -2.910206197788929305e-01 -1.884769439665052060e+00