-5.068330338330707008e+01 -1.575051126595673878e+01 3.469980582902024224e+01 -1.575051126595673878e+01 -9.412850356308955213e+01 -2.082408019114735964e+01 3.469980582902024224e+01 -2.082408019114735964e+01 -6.826028810242671341e+01
-9.687381170270209907e+01 9.261088369272618692e+00 7.878139078583710209e+00 9.261088369272618692e+00 -9.021856846470325308e+01 5.655764186394097237e+01 7.878139078583710209e+00 5.655764186394097237e+01 -1.616921256499446713e+01
-1.955059256333351314e+01 7.343291426874086092e+00 -1.677930442546166745e+00 7.343291426874086092e+00 -2.895284941401655843e+01 -1.933871479883880440e+01 -1.677930442546166745e+00 -1.933871479883880440e+01 2.865689850884477252e+01
-1.439610744631312045e+01 4.797851860466220586e+00 -1.389724281294227204e+01 4.797851860466220586e+00 -2.977957907398772264e+01 -2.718221047940139812e+01 -1.389724281294227204e+01 -2.718221047940139812e+01 -4.658490421607056930e+01
-2.576615281503938704e+01 -4.569655454283179807e+01 3.193369386770969953e+01 -4.569655454283179807e+01 -4.908809741221101319e+01 4.585269619514485129e+01 3.193369386770969953e+01 4.585269619514485129e+01 -4.461657736829072007e+01
-1.173049477016118942e+02 3.698582931567080401e+00 -1.186521398586276632e+01 3.698582931567080401e+00 -6.909056221529324660e+01 -1.371102457731850777e+01 -1.186521398586276632e+01 -1.371102457731850777e+01 -8.680827644614004157e+01
-6.767153217333293469e+01 4.484987036337980015e+01 6.989787513310218969e+00 4.484987036337980015e+01 1.124720453853279167e+01 -1.580791661980349971e+01 6.989787513310218969e+00 -1.580791661980349971e+01 -8.032793956791937262e+01
-8.757436898351214438e+01 -3.588230610140668375e+01 -1.895050781153709352e+01 -3.588230610140668375e+01 -1.390418135394496915e+02 2.311490344966301791e+01 -1.895050781153709352e+01 2.311490344966301791e+01 -7.065972610408105936e+01
-6.110284433945331273e+01 3.496383453680275011e+01 -3.641418106076980621e+01 3.496383453680275011e+01 3.058188374957402367e+00 -3.384410459491994771e+01 -3.641418106076980621e+01 -3.384410459491994771e+01 -1.044877647040593160e+02
-1.021230772352293883e+02 -2.183870159574397718e+01 -1.134600028125899662e+01 -2.183870159574397718e+01 -6.940506714870006988e+01 -1.647356455236232264e+01 -1.134600028125899662e+01 -1.647356455236232264e+01 -7.108356375952510575e+01
-5.561508817943840199e+01 2.347842732559908896e+01 2.502203693974022869e+01 2.347842732559908896e+01 -1.892358501505292523e+01 1.616085353596792018e+01 2.502203693974022869e+01 1.616085353596792018e+01 -5.207225649483761742e+01
-4.959707086974978552e+01 -8.723585914695185295e+00 1.167986015900929786e+01 -8.723585914695185295e+00 -3.180661362206497600e+01 -3.509913577382332228e+00 1.167986015900929786e+01 -3.509913577382332228e+00 -3.545785442212592642e+01
-6.140879401712715691e+01 -1.448370556267920506e+01 5.059230520386784491e+01 -1.448370556267920506e+01 -4.241794900286284786e+01 5.062833398880260916e+01 5.059230520386784491e+01 5.062833398880260916e+01 -7.568204879962107157e+01
-5.228659548178509198e+01 -2.635625026244839475e+01 -7.166157156639599179e+00 -2.635625026244839475e+01 1.153502836021370825e+00 1.817677741690395621e+01 -7.166157156639599179e+00 1.817677741690395621e+01 -1.379921022436460554e+01
-4.814935813194726677e+01 -3.845157954266197464e+01 7.619946233509251599e+00 -3.845157954266197464e+01 -7.924383311832610843e+01 -1.760352264824685520e+01 7.619946233509251599e+00 -1.760352264824685520e+01 -3.021490979870427651e+01
-6.073643801375072115e+01 -1.088844625155022783e+01 2.942131194384049131e+00 -1.088844625155022783e+01 -3.625760832923435828e+01 -2.240795275678069132e+01 2.942131194384049131e+00 -2.240795275678069132e+01 -9.766486123828782695e+01
-7.073598375677659078e+01 1.688120759779378233e+01 -1.482028972890472929e+01 1.688120759779378233e+01 -4.114484193500111076e+01 3.061501355339940833e+00 -1.482028972890472929e+01 3.061501355339940833e+00 -1.041963116437069772e+02
-2.021654167607303521e+01 2.442371249755085927e+01 1.400677535562411080e+01 2.442371249755085927e+01 3.792756147693116731e+01 2.301038543585655294e+00 1.400677535562411080e+01 2.301038543585655294e+00 -4.338690895295118821e+01
-6.264898293501078541e+01 -5.788910454402506289e+00 -2.520681364031946003e+01 -5.788910454402506289e+00 -8.010868481519545981e+01 2.138333760169128084e+01 -2.520681364031946003e+01 2.138333760169128084e+01 -6.701018121349670764e+01
6.830553686319974283e+00 -1.518200679494345096e+01 2.579922983142936843e+01 -1.518200679494345096e+01 -3.011552395984563546e+01 5.344378714894255644e+00 2.579922983142936843e+01 5.344378714894255644e+00 -5.935304745190369147e+01
-1.007088188998071843e+02 3.221995579206720350e+01 3.061417762621204464e+00 3.221995579206720350e+01 -9.690423253567013262e+01 1.795294625014588519e+01 3.061417762621204464e+00 1.795294625014588519e+01 -1.088775873330760646e+02
-5.751388163262553199e+00 4.188482915581039379e+01 -2.015466470863547244e-01 4.188482915581039379e+01 -8.945636373890344828e+01 -4.275639528768620323e+01 -2.015466470863547244e-01 -4.275639528768620323e+01 -8.896036371169188328e+01
-1.396948535224671275e+02 6.047400426946252239e+00 1.960460379387406249e+01 6.047400426946252239e+00 -4.191964884539189029e+01 -5.406526963241752526e+00 1.960460379387406249e+01 -5.406526963241752526e+00 -4.074631426465222717e+01
-7.763892713951918267e+01 1.752477192782145465e+01 1.111141618820757593e+01 1.752477192782145465e+01 -1.419416386690064940e+02 -2.930983435986396657e+00 1.111141618820757593e+01 -2.930983435986396657e+00 -9.566648547644946632e+01
-1.390142992531291384e+02 2.616538246812582713e+01 1.509181412647455112e+01 2.616538246812582713e+01 -1.076906377089347160e+02 -1.092750040595889160e+01 1.509181412647455112e+01 -1.092750040595889160e+01 -1.218306862293112118e+02
-9.670444364506579404e+01 1.618560490894313375e+01 -8.455105583207117803e+00 1.618560490894313375e+01 -8.873323086990444608e+01 -1.903275886821749907e+01 -8.455105583207117803e+00 -1.903275886821749907e+01 -3.482274356118999492e+01
-7.233575849570380001e+01 1.241352577283529257e+01 -2.825091415594660038e+00 1.241352577283529257e+01 -8.540153296856800580e+01 3.917596380075243356e+00 -2.825091415594660038e+00 3.917596380075243356e+00 -1.105984072488300995e+02
-5.039085178541208165e+01 -7.729996476842043052e+00 -7.568604187669150996e+00 -7.729996476842043052e+00 -2.099360995019423370e+01 -4.121671484254227380e+01 -7.568604187669150996e+00 -4.121671484254227380e+01 -3.962112640562303056e+01
-1.199294133313097177e+02 -8.134283674414511722e+00 3.318077829880456076e+00 -8.134283674414511722e+00 -9.816285602497019624e+01 -1.919254411957513895e+01 3.318077829880456076e+00 -1.919254411957513895e+01 -4.013303776501764730e+01
-5.893681310610124058e+01 -4.193017149615412364e+01 -3.386993313377853099e+01 -4.193017149615412364e+01 -3.716283955794187932e+01 -2.508478529907675281e+01 -3.386993313377853099e+01 -2.508478529907675281e+01 -5.775398801363474632e+01
-6.798701575777690209e+01 2.682057241165897921e+01 5.121901973032763777e+01 2.682057241165897921e+01 -3.245916046882617678e+01 -1.386115822503486505e+01 5.121901973032763777e+01 -1.386115822503486505e+01 -6.469219967410433014e+01
-9.036945129029980706e+01 3.004060766276587469e+00 5.693428591305335829e+01 3.004060766276587469e+00 -6.648180704898653914e+01 4.820960285929974987e+01 5.693428591305335829e+01 4.820960285929974987e+01 -7.423210347706017842e+01
-3.647748055208652573e+01 3.051883775006213639e+01 -1.639960525798547408e+01 3.051883775006213639e+01 -1.148376894933602159e+02 -4.734193484957162745e+00 -1.639960525798547408e+01 -4.734193484957162745e+00 -8.817392776192275505e+01
1.090103069215601117e+01 -2.001464361937235736e+01 5.206937476047538382e+01 -2.001464361937235736e+01 8.189551933259554550e-01 -1.878148562456049575e+01 5.206937476047538382e+01 -1.878148562456049575e+01 -3.012117833324753846e+01
-6.145462537151112059e+01 -1.138910828923233076e+01 -3.316760139674044439e+01 -1.138910828923233076e+01 -7.908154043921750542e+01 -2.570322814901483355e+01 -3.316760139674044439e+01 -2.570322814901483355e+01 -1.195831043975866095e+02
-2.036861334101086740e+01 -2.673623556477268792e+00 -9.583975989383121785e+00 -2.673623556477268792e+00 -1.259645289717237304e+01 4.758920415361023970e+01 -9.583975989383121785e+00 4.758920415361023970e+01 -2.582961102042715140e+01
-5.064895508050771156e+01 4.188300104342692265e+01 -1.631003503020706513e-01 4.188300104342692265e+01 -5.021471866509729409e+01 -2.017124117375347225e+01 -1.631003503020706513e-01 -2.017124117375347225e+01 -8.914011710925885268e+01
-5.437726286225095151e+01 -2.753909941646194781e+01 -2.353077016878781080e+01 -2.753909941646194781e+01 -1.171588113955572368e+02 4.245814143830951792e+00 -2.353077016878781080e+01 4.245814143830951792e+00 -5.070585840228409324e+01
-5.186602610765199017e+01 -3.273709571115642802e+01 -8.014109382967456341e+00 -3.273709571115642802e+01 -1.062583015459229330e+02 -3.477038459976785134e+01 -8.014109382967456341e+00 -3.477038459976785134e+01 -4.815697097408577321e+01
-5.092952821891827142e+01 -2.529838496800386594e+01 4.762268904967568162e+00 -2.529838496800386594e+01 -4.990448998895469401e+01 -8.721773665692339250e+00 4.762268904967568162e+00 -8.721773665692339250e+00 -3.591982434098856203e+01
-7.797819707431858660e+01 -1.253441045281682342e+01 -2.157091025858239064e+01 -1.253441045281682342e+01 -9.207833200933994533e+01 -2.607472328665476269e+01 -2.157091025858239064e+01 -2.607472328665476269e+01 -6.644770058176386840e+01
-1.091671340300294020e+02 -2.448066525526331638e+00 2.161754111981286997e+01 -2.448066525526331638e+00 -8.666549360430208537e+01 1.219951809422617295e+01 2.161754111981286997e+01 1.219951809422617295e+01 -1.030979326739580131e+02
-8.495875005257630619e+01 1.289431087866363690e+01 3.553185158258948206e+01 1.289431087866363690e+01 -4.531750180084587498e+01 -2.171700926603090664e+01 3.553185158258948206e+01 -2.171700926603090664e+01 -5.695669207570698234e+01
-6.298779110846996332e+01 2.821925834445419312e+01 2.076597392567055778e+01 2.821925834445419312e+01 -9.621251406680720208e+01 -2.115812400301864135e-06 2.076597392567055778e+01 -2.115812400301864135e-06 -8.517302730778501640e+00
-1.386751988596109868e+02 -2.347671139705036580e+01 8.437021285422513728e+00 -2.347671139705036580e+01 -6.482503611832861168e+01 1.381953942008724034e+01 8.437021285422513728e+00 1.381953942008724034e+01 -7.883839124208176941e+01
-7.852810173975744590e+01 -2.405540517150626201e+01 -6.814959548748254825e+00 -2.405540517150626201e+01 -8.827988209634997929e+01 -1.759461228183267423e+01 -6.814959548748254825e+00 -1.759461228183267423e+01 -7.855285075880480861e+01
-5.997713284302783165e+01 -3.893641934807757776e-01 2.659537612450906252e-01 -3.893641934807757776e-01 -3.873213784484473621e+01 1.579562587351497627e-01 2.659537612450906252e-01 1.579562587351497627e-01 -7.930097550621473257e-01
-8.792158774690341261e+01 -6.112399829515391403e+00 2.821387783352022183e+01 -6.112399829515391403e+00 -6.137969140264721091e+01 -3.728868467199412606e+01 2.821387783352022183e+01 -3.728868467199412606e+01 -1.028542097580069452e+02
-7.247937283273813591e+01 -3.574221360380016677e+01 -2.660755708523501895e+01 -3.574221360380016677e+01 -4.787046938542034269e+01 -3.270488088995348619e+01 -2.660755708523501895e+01 -3.270488088995348619e+01 -5.350379832147051218e+01
-8.340302281831674236e+01 -1.461030687523022920e+01 -3.152360906010892094e+01 -1.461030687523022920e+01 -1.039596581699119042e+02 -3.615299618462192388e+00 -3.152360906010892094e+01 -3.615299618462192388e+00 -3.793757492680970245e+01
-3.190769515974709591e+01 -2.211185567951030251e+01 -2.522195646760510002e+01 -2.211185567951030251e+01 -3.422906806350371767e+01 -3.064357296444505252e+01 -2.522195646760510002e+01 -3.064357296444505252e+01 -9.711797867845552901e+01
-7.967306002916436114e+01 3.551509878637762085e+01 -1.116517692206701717e+01 3.551509878637762085e+01 -5.516257455498776352e+01 1.341760442639113293e+01 -1.116517692206701717e+01 1.341760442639113293e+01 -8.538428236964375628e+01
-5.769268441708144479e+01 5.982131605877949454e-01 3.820929654010038590e+00 5.982131605877949454e-01 -2.997405771575430933e+01 7.546324818264323220e+00 3.820929654010038590e+00 7.546324818264323220e+00 2.524479756388773311e+00
-1.303373818968724152e+02 -2.766339183606385532e+01 2.250070662688477086e+01 -2.766339183606385532e+01 -6.741577956162561236e+01 9.577585645135863857e+00 2.250070662688477086e+01 9.577585645135863857e+00 -1.145881699946418877e+02
-2.135167413482587762e+01 7.380329179571671894e+00 -6.198314809625790289e+00 7.380329179571671894e+00 -5.402046371226493449e+01 -2.712556397682959286e+01 -6.198314809625790289e+00 -2.712556397682959286e+01 -2.207030229617966199e+01
-1.043764372438132000e+02 -1.595413740468120878e+01 5.564656554128210075e+01 -1.595413740468120878e+01 -7.426261664676555085e+01 8.928914434847533554e-01 5.564656554128210075e+01 8.928914434847533554e-01 -9.945306348291205722e+01
-6.130809578351367861e+01 1.418858028616053524e+01 -2.226045883047958185e+01 1.418858028616053524e+01 -4.297599523671370036e+01 1.462487515020901574e+00 -2.226045883047958185e+01 1.462487515020901574e+00 -2.017807353233773782e+01
-5.863278097629166297e+01 1.200168002896314334e+01 -5.495192321646262812e+00 1.200168002896314334e+01 -9.352970691926239866e+00 -6.444222598292131288e+00 -5.495192321646262812e+00 -6.444222598292131288e+00 -9.461775675626296334e+01
-8.393615618823207569e+01 -5.628647128276277556e+00 -1.731252745968661699e+01 -5.628647128276277556e+00 -7.984711639260824256e+01 -3.652527193134304895e+01 -1.731252745968661699e+01 -3.652527193134304895e+01 -5.944305247383743307e+01
3.099468075060125005e-01 1.965773575737317103e+01 -4.935176370758556530e+00 1.965773575737317103e+01 2.774438347296431573e+00 -2.375241596498233676e+01 -4.935176370758556530e+00 -2.375241596498233676e+01 -1.941709814839402171e+01
-3.561686199666393549e+01 -2.839123702698258533e+00 3.261085349336556050e+01 -2.839123702698258533e+00 -4.578955061428212758e+01 3.773974062640255056e+01 3.261085349336556050e+01 3.773974062640255056e+01 -2.964823003718894512e+01
-9.768396849547154659e+01 -1.821759755045271234e+01 1.659533083497806416e+01 -1.821759755045271234e+01 -9.922901205486971321e+01 3.290293516272227325e+00 1.659533083497806416e+01 3.290293516272227325e+00 -8.642417747207325363e+01
6.894758797871583522e-02 3.550915713591388112e+01 -6.080490986741700077e+00 3.550915713591388112e+01 -9.210615940582689731e+00 -1.483796912021656844e+01 -6.080490986741700077e+00 -1.483796912021656844e+01 -9.304597100965082745e+01
-5.414142569992162635e+01 2.135065008692783906e+01 1.550312077581690140e+01 2.135065008692783906e+01 -8.622938427971389785e+01 -6.002126470171600836e+00 1.550312077581690140e+01 -6.002126470171600836e+00 -1.087155996851383719e+02
-1.125513466101285474e+02 -7.832128151946213812e+00 8.129692481570666374e+00 -7.832128151946213812e+00 -2.886399504651137260e+00 -7.195463039105913339e+00 8.129692481570666374e+00 -7.195463039105913339e+00 -9.567171829454673571e+01
-1.034427847650637915e+02 3.811175854426045362e+01 1.177607465483922411e+01 3.811175854426045362e+01 -4.214086349926284214e+01 4.649867178664835166e+01 1.177607465483922411e+01 4.649867178664835166e+01 -5.727411955171606195e+01
-3.648464774904741148e+01 -7.568619938717017881e+00 2.797339483119217718e+01 -7.568619938717017881e+00 -8.115835320890289495e+01 -1.360905111470694351e+01 2.797339483119217718e+01 -1.360905111470694351e+01 -7.735000561240970285e+01
-3.612936726037824542e+01 2.270630599317879117e+01 3.368705813036456220e+01 2.270630599317879117e+01 -1.430597250476313036e+02 -8.274535324079073106e+00 3.368705813036456220e+01 -8.274535324079073106e+00 -9.025056380427373881e+01
-1.087020144973115663e+02 -5.230003795111692888e+00 1.005926759612440158e+01 -5.230003795111692888e+00 -6.475038291063458473e+01 -1.197733691528709521e+01 1.005926759612440158e+01 -1.197733691528709521e+01 -6.236715029285154799e+01
-1.151013976719445964e+02 -3.202835623410697963e+01 -3.369914303649323983e+01 -3.202835623410697963e+01 -7.210477400470946918e+01 4.298535820462258528e+01 -3.369914303649323983e+01 4.298535820462258528e+01 -7.356528833227849873e+01
-8.757158279074126028e+01 -1.527608071357183483e+01 -2.561628755675198477e+01 -1.527608071357183483e+01 -5.344529186419285338e+01 3.556056214466837950e+00 -2.561628755675198477e+01 3.556056214466837950e+00 -6.457716455374283271e+01
-8.605712656912299963e+01 2.169319911908729992e+01 -1.946896980417012202e+00 2.169319911908729992e+01 -6.096764139154866768e+01 -9.631939452802088297e+00 -1.946896980417012202e+00 -9.631939452802088297e+00 -8.791699040571215562e+01
-5.883395485415307036e+01 -4.878578635647919270e+00 -1.849829734173375329e+01 -4.878578635647919270e+00 -7.525633655091827734e+01 4.791535653564523933e+00 -1.849829734173375329e+01 4.791535653564523933e+00 -2.888066788212719160e+01
-3.073234720045979884e+01 1.423169638440231033e+01 2.736164011810169683e+01 1.423169638440231033e+01 -2.476080405514050398e+01 2.681285527330793528e+01 2.736164011810169683e+01 2.681285527330793528e+01 -1.995438825426010254e+01
-1.227870186550299714e+01 2.701379972159416809e+01 -7.273199171041792255e+00 2.701379972159416809e+01 -2.026278555291157080e+00 -6.587736452082713967e+00 -7.273199171041792255e+00 -6.587736452082713967e+00 2.176828031944887698e+01
-1.075584255518925261e+02 1.506313293215472982e+01 -1.033931906762084019e+01 1.506313293215472982e+01 -8.710936163882620065e+01 4.433414885313554521e+01 -1.033931906762084019e+01 4.433414885313554521e+01 -1.243396064933644851e+02
-3.976742932122765239e+01 -3.670800480419338374e+00 -2.803816830551959782e+01 -3.670800480419338374e+00 -4.680346541561603857e+01 2.890438828264477067e+01 -2.803816830551959782e+01 2.890438828264477067e+01 -2.028388505267060182e+01
-9.802219846351428600e+01 4.083479637656345318e+01 1.811132899527451201e+01 4.083479637656345318e+01 -5.531593186797378792e+01 6.012213859599891741e+00 1.811132899527451201e+01 6.012213859599891741e+00 -7.391677836636414156e+01
-7.926677658613405697e+01 -5.558291927009467059e+01 7.350075887895934912e+00 -5.558291927009467059e+01 -8.412434048931609709e+01 7.139630792036062701e+01 7.350075887895934912e+00 7.139630792036062701e+01 -7.264505583353245299e+01
-2.916724973604130966e+00 -2.085640821437452885e+01 4.579629651179870820e+01 -2.085640821437452885e+01 -8.477747429882643360e+01 -3.089745650183948911e+01 4.579629651179870820e+01 -3.089745650183948911e+01 -7.159877495962582827e+01
-8.820503183195337726e+01 8.738558624303011113e-01 6.932242776608299906e+00 8.738558624303011113e-01 -9.072250635770593874e+01 -5.404038197436410940e+01 6.932242776608299906e+00 -5.404038197436410940e+01 4.772593577084174754e+00
-2.555519955468349380e+01 4.528498960250768590e+00 -9.897287480284541417e+00 4.528498960250768590e+00 -5.826085285701100069e+00 -1.098680891183249209e+01 -9.897287480284541417e+00 -1.098680891183249209e+01 -6.768160584674113522e+01
-1.632435078937436046e+01 1.336578237431918170e+00 1.850597055516967515e+01 1.336578237431918170e+00 -6.017759359428111310e+01 9.116761307081432619e+00 1.850597055516967515e+01 9.116761307081432619e+00 -1.064933292008507522e+02
-9.337833307653886195e+00 -5.826916913775443163e+01 -3.894297532078061064e+00 -5.826916913775443163e+01 -6.819883250509505501e+01 5.199771761995729236e+01 -3.894297532078061064e+00 5.199771761995729236e+01 -1.031147892375563657e+02
-6.347106217319105070e+01 2.834398924689624977e+01 3.198041109972679408e+01 2.834398924689624977e+01 -7.452158830095696374e+01 -2.361468563948645016e+00 3.198041109972679408e+01 -2.361468563948645016e+00 -5.062117136533013984e+00
-5.133163895783557251e+01 -1.250428068590511366e+00 -2.933936430361631764e+01 -1.250428068590511366e+00 -6.879795117271073934e+01 -2.622711895814178007e+01 -2.933936430361631764e+01 -2.622711895814178007e+01 -2.225203149176318007e+01
3.991561515969940466e+00 1.409714432396444828e+01 -7.152267331670640260e+01 1.409714432396444828e+01 -7.060731961616018282e+01 -3.828792562741625716e+01 -7.152267331670640260e+01 -3.828792562741625716e+01 -4.648833527811999744e+01
-3.545534357724034891e+01 -1.730600221810027506e+01 1.567067771894541162e+00 -1.730600221810027506e+01 -4.578039422618250143e+01 7.974314100456282972e+00 1.567067771894541162e+00 7.974314100456282972e+00 -2.390023197339274219e+01
-8.034944932671197648e+01 7.248644178078438749e+00 -1.361446838557720795e+01 7.248644178078438749e+00 -7.676907182666319329e+01 1.316137135635748834e+01 -1.361446838557720795e+01 1.316137135635748834e+01 -5.071702358724922277e+01
-1.192887147038571101e+02 3.762066565626708936e+00 -7.753037787313673768e+00 3.762066565626708936e+00 -1.545316623331064676e+01 2.166080816353385430e+01 -7.753037787313673768e+00 2.166080816353385430e+01 -1.324849370614976181e+02
-1.126022213046292819e+02 -1.136180823059807743e+01 -2.077801255543047176e+00 -1.136180823059807743e+01 -7.173497402929727684e+01 1.790565251386269452e+01 -2.077801255543047176e+00 1.790565251386269452e+01 -2.275970272089152857e+01
-7.444478660472553599e+01 5.571548165654475859e+00 2.905986121977201009e+01 5.571548165654475859e+00 -1.023097903963964654e+02 3.262293526615851391e+01 2.905986121977201009e+01 3.262293526615851391e+01 -2.937023796963797651e+01
-1.041513426381006582e+02 -2.137475286616514580e+01 2.967980928654896289e+01 -2.137475286616514580e+01 -5.350784310451011550e+01 3.642748837178245935e+01 2.967980928654896289e+01 3.642748837178245935e+01 -6.660775664263150020e+01
-1.065925373975504868e+02 -3.813714086580206697e+01 1.731454936781631204e+01 -3.813714086580206697e+01 -7.529416451224211926e+01 6.659788510450621146e+00 1.731454936781631204e+01 6.659788510450621146e+00 -1.222501686382807691e+02
-1.835088441873696752e+01 1.756042387425161877e+01 -4.859033957187934405e+00 1.756042387425161877e+01 -5.150951811608360487e+01 4.613463884135765802e+00 -4.859033957187934405e+00 4.613463884135765802e+00 -7.106209516487392364e+01
-8.956955131705019824e+01 3.155981051385709435e+01 -2.022229954972800670e+01 3.155981051385709435e+01 2.893652709696009850e+00 -2.617550938147071449e+01 -2.022229954972800670e+01 -2.617550938147071449e+01 -1.268669442656291153e+02
-1.381408435388665339e+02 -3.551774407651426912e+01 -2.692135614910188579e+01 -3.551774407651426912e+01 -6.007478723222795480e+01 9.163268537640401945e+00 -2.692135614910188579e+01 9.163268537640401945e+00 -8.478673252889238654e+01
-2.190722184191809063e+01 -3.856709203137737685e+00 2.011552924563142497e+01 -3.856709203137737685e+00 -1.088929914085456829e+02 -1.641417702889888730e+01 2.011552924563142497e+01 -1.641417702889888730e+01 -4.683979646322315915e+01
-2.183356890098300696e+00 -3.198325498668306288e+00 -2.306364439831289914e+01 -3.198325498668306288e+00 -5.053436851597589197e+01 1.811130595307928104e+01 -2.306364439831289914e+01 1.811130595307928104e+01 -3.870084651431346945e+00
-5.750867939225581438e+01 -3.511093490993367539e+01 2.766139669135142753e+01 -3.511093490993367539e+01 -8.617663264628855302e+01 -1.398970066015227331e+00 2.766139669135142753e+01 -1.398970066015227331e+00 -1.000925505720123851e+02
-5.698209192422656599e+01 -3.826509912553532189e+01 -2.593810970745261457e+01 -3.826509912553532189e+01 -2.710043423001229357e+01 -9.071388446196953836e+00 -2.593810970745261457e+01 -9.071388446196953836e+00 -5.360026569647954631e+01
3.389692240994790495e-01 2.265446446020219184e+01 -6.543387250207802985e+00 2.265446446020219184e+01 1.996144598537707893e+01 8.681875293563757978e+00 -6.543387250207802985e+00 8.681875293563757978e+00 2.979694965811287566e-01
-1.159492639803155924e+02 -2.288337153964078041e+01 -7.050540703837503642e+00 -2.288337153964078041e+01 -5.628644619899067436e+01 1.731288063479870232e+01 -7.050540703837503642e+00 1.731288063479870232e+01 -1.134379888457175767e+01
-6.440115300410019472e+01 7.681272671489233872e+00 -3.321953009424548853e+00 7.681272671489233872e+00 -3.287418939722902422e+01 -3.815851365127095107e+00 -3.321953009424548853e+00 -3.815851365127095107e+00 -3.056858021874639775e+01
-4.870226033832488355e+01 -7.586012507147017914e+00 4.935668223356296380e+01 -7.586012507147017914e+00 -7.465367345783046460e+01 -4.946456666269765634e+01 4.935668223356296380e+01 -4.946456666269765634e+01 -8.279613293325708412e+01
-6.373717569639919844e+01 -7.467635171019893825e+00 6.445303121871331697e+00 -7.467635171019893825e+00 -2.573201137151915674e+01 4.102189595024941582e+01 6.445303121871331697e+00 4.102189595024941582e+01 -1.327754732657250543e+02
-7.220236827901753429e+01 -3.457311021837696074e+01 5.518260665199026249e+01 -3.457311021837696074e+01 -7.714114460185550115e+01 -3.608593277600173455e+00 5.518260665199026249e+01 -3.608593277600173455e+00 -6.957234811034818733e+01
-2.200024146609143916e+00 9.179449531842209353e+00 8.438490714783783986e+00 9.179449531842209353e+00 -6.565271684343069580e+01 -2.584868442465358385e+01 8.438490714783783986e+00 -2.584868442465358385e+01 1.396184645074853625e+00
-5.117660138679364934e+01 7.288660905616072050e+00 -8.545508982517572960e+00 7.288660905616072050e+00 -5.362256443060763189e+01 1.048956380022241675e+01 -8.545508982517572960e+00 1.048956380022241675e+01 -6.927467215286462476e+01
-1.264297615664276719e+02 1.823397299806998006e+01 7.708592213329787945e+00 1.823397299806998006e+01 -3.696542192004587335e+00 -1.188784924648444452e+01 7.708592213329787945e+00 -1.188784924648444452e+01 -5.952711968285102984e+01
-7.614941445557077770e+01 8.126300019102194128e+00 -5.864942654549692991e-01 8.126300019102194128e+00 -5.730875600995464225e+01 1.423416636155103632e+01 -5.864942654549692991e-01 1.423416636155103632e+01 -8.523483355954653007e+01
-5.961901375759721589e+01 -1.684717021072422938e+01 -2.568329664218129338e+01 -1.684717021072422938e+01 -6.658834849810816081e+01 9.261580025956604345e+00 -2.568329664218129338e+01 9.261580025956604345e+00 -1.253788345454236293e+02
-6.138701364975221253e+01 4.085624333873333569e+01 -8.124399288385287576e+00 4.085624333873333569e+01 -3.419530533188969912e+01 1.170517537558884946e+01 -8.124399288385287576e+00 1.170517537558884946e+01 -2.542617411266703797e+01
-6.608752398090901181e+01 8.813063682967097634e+00 5.147842802285246044e+00 8.813063682967097634e+00 -6.727050995745777584e+01 1.102294768857931651e+00 5.147842802285246044e+00 1.102294768857931651e+00 -1.329676879437253660e+02
-1.215729946130280297e+02 -8.316995085301792656e+00 -6.511403807790645537e+00 -8.316995085301792656e+00 -1.337670709584253643e+02 -8.356255090998375934e+00 -6.511403807790645537e+00 -8.356255090998375934e+00 -6.796608262824912572e+01
-2.545660400875683749e+01 9.163086995064102069e+00 1.878718036096091026e+01 9.163086995064102069e+00 -4.021579640376161002e+00 4.878139231748673410e+01 1.878718036096091026e+01 4.878139231748673410e+01 -6.803233407211580186e+01
-7.049276734118571142e+01 4.774827715844764242e+01 -3.555730840069975329e+01 4.774827715844764242e+01 -7.779353083151390180e+00 3.651479060461684867e+01 -3.555730840069975329e+01 3.651479060461684867e+01 -6.395053969336446187e+01
-6.485696768849085458e+01 -1.395999611700451837e+01 3.003445293893777190e+01 -1.395999611700451837e+01 -4.621196440923732496e+01 -2.730463889509115560e+00 3.003445293893777190e+01 -2.730463889509115560e+00 -8.434586435859388587e+01
-8.916042838012319294e+01 7.249459190699568012e+00 -2.231350727205524631e+00 7.249459190699568012e+00 -1.034867076084576070e+02 2.628826481869576881e+01 -2.231350727205524631e+00 2.628826481869576881e+01 -9.203933819948389328e+01
-5.652528977590155534e+01 2.974635730355618346e+00 1.294101568242053446e+01 2.974635730355618346e+00 -9.435564107115586907e+00 -1.736302548694381542e+01 1.294101568242053446e+01 -1.736302548694381542e+01 -2.066369091787748857e+01
-8.169958907014265037e+01 2.316915878726462097e+01 1.528126698896685065e+00 2.316915878726462097e+01 -1.505466183526265489e+01 -1.556818525586378499e+01 1.528126698896685065e+00 -1.556818525586378499e+01 -9.489478798462135956e+01
7.405720716431034134e+00 1.338757054803431323e+00 2.565716489757387464e+01 1.338757054803431323e+00 -6.827956599375002611e+01 -1.369763921126109985e+01 2.565716489757387464e+01 -1.369763921126109985e+01 -6.742055142275206947e+01
-2.969365114696165620e+01 4.577877193106311360e+00 -5.695056194442427611e+00 4.577877193106311360e+00 -7.202233937563642030e+01 2.949398233093254440e+00 -5.695056194442427611e+00 2.949398233093254440e+00 5.974879762481908330e+01
-8.639146066492736509e+01 1.582264837108169075e+01 -5.090475370134260658e+00 1.582264837108169075e+01 -1.003726295802666044e+02 2.992159986094039326e+01 -5.090475370134260658e+00 2.992159986094039326e+01 -9.922839376746829032e+01
-1.466372614698550514e+01 1.743299035755127591e+01 4.906013410665664054e+01 1.743299035755127591e+01 -2.103312965904327214e+01 1.756166830186138839e+01 4.906013410665664054e+01 1.756166830186138839e+01 -6.599657615667217669e+01
-8.360490420850520366e+01 4.706289136943119900e+00 -7.488415753003870634e+00 4.706289136943119900e+00 -3.647952286340523642e+01 -2.055495799021104730e+01 -7.488415753003870634e+00 -2.055495799021104730e+01 -2.236841477540799872e+01
-5.906779903836643086e+01 -1.149484046819105210e+01 -1.704228318238167672e+00 -1.149484046819105210e+01 -3.253931398057457614e+01 -4.447737310800797417e+01 -1.704228318238167672e+00 -4.447737310800797417e+01 -1.142616668979546830e+02
1.622491464509683734e+00 -7.504090468679318171e+00 1.924675495164231620e+01 -7.504090468679318171e+00 -1.136965456717854863e+02 2.375144514512262006e+01 1.924675495164231620e+01 2.375144514512262006e+01 -3.501295122216927069e+01
-8.745796693721473503e+01 3.898226155315721542e+01 4.375260721932754393e+01 3.898226155315721542e+01 -4.639477262135515900e+01 -2.791855885103302271e+01 4.375260721932754393e+01 -2.791855885103302271e+01 -5.896360807848036245e+01