-7.765185909515302046e+04
-7.768560207030277525e+04
-7.757167278690752573e+04
-7.753854857116325002e+04
-7.764803939554782119e+04
-7.761641939957045543e+04
-7.769173042119231832e+04
-7.770122835419616604e+04
-7.769091625241060683e+04
-7.758333403863762214e+04
-7.768672364612561068e+04
-7.757373971429695666e+04
-7.765892474017079803e+04
-7.754541967245822889e+04
-7.753426052450203861e+04
-7.765678577900136588e+04
-7.754510550954373321e+04
-7.754269503130421799e+04
-7.764636924818388070e+04
-7.758588347824785160e+04
-7.756955252114932227e+04
-7.767977583614182367e+04
-7.764947914371563820e+04
-7.761703436919284286e+04
-7.768047796368044510e+04
-7.757922648288504570e+04
-7.769016262708882277e+04
-7.761914917622921348e+04
-7.769393204215432343e+04
-7.760039307001992711e+04
-7.769458419828409387e+04
-7.769919771892104472e+04
-7.757185909158925642e+04
-7.768497414923617907e+04
-7.765908410599372291e+04
-7.758605882286329870e+04
-7.764201775835220178e+04
-7.754121856591574033e+04
-7.754295915467859595e+04
-7.753458901334801340e+04
-7.765528538614697754e+04
-7.753548354735861358e+04
-7.752821005665697157e+04
-7.769583642229603720e+04
-7.769312602005411463e+04
-7.757228819062339608e+04
-7.761322757557198929e+04
-7.769133944802706537e+04
-7.765558257718186360e+04
-7.769198433762093191e+04
-7.757851647011360910e+04
-7.769285918077432143e+04
-7.755599822096168646e+04
-7.765619134654368099e+04
-7.769251819551647350e+04
-7.762078886387098464e+04
-7.769035774013839546e+04
-7.765834339142043609e+04
-7.760672981079859892e+04
-7.762878500256061670e+04
-7.761202785606760881e+04
-7.757844925850225263e+04
-7.769350286214183143e+04
-7.768536453020415502e+04
-7.760675228778038581e+04
-7.769802405941260804e+04
-7.765262589627773559e+04
-7.761423913550589350e+04
-7.758094192317551642e+04
-7.764386666740247165e+04
-7.755035758616188832e+04
-7.761534087211699807e+04
-7.761402457555924775e+04
-7.757254338101428584e+04
-7.758058703688959940e+04
-7.765712537335512752e+04
-7.761857826998049859e+04
-7.765719424600536877e+04
-7.764876117761860951e+04
-7.761681617475721578e+04
-7.762204106364263862e+04
-7.757631186049831740e+04
-7.769726318003446795e+04
-7.765760589871788397e+04
-7.765095691356546013e+04
-7.758457503849062778e+04
-7.769276248129479063e+04
-7.770063877314089041e+04
-7.768379979582368105e+04
-7.752701628890803840e+04
-7.764537811671356030e+04
-7.757648767079474055e+04
-7.765153569959262677e+04
-7.765775534101903031e+04
-7.769508143741809181e+04
-7.757196129373236909e+04
-7.769062015879452520e+04
-7.761247961020345974e+04
-7.753934277369224583e+04
-7.753937380591520923e+04
-7.753226373547031835e+04
-7.764785933169866621e+04
-7.756932711524126353e+04
-7.765499386371944274e+04
-7.764881458956151619e+04
-7.761743194294447312e+04
-7.762264948189967254e+04
-7.756073105729809322e+04
-7.764792792594434286e+04
-7.758819429071652121e+04
-7.769382598232151940e+04
-7.754275722023601702e+04
-7.754409411779318179e+04
-7.766341136886876484e+04
-7.760709341108980880e+04
-7.755154052844217222e+04
-7.757726783551575500e+04
-7.758176778039464261e+04
-7.764948064525394875e+04
-7.764662081193411723e+04
-7.757897068920492893e+04
-7.758052300655547879e+04
-7.758113360610629024e+04
-7.757021598301682388e+04
-7.757920622772390197e+04
-7.752784800903535506e+04
-7.753866067242946883e+04
-7.754519524746433308e+04
-7.768807513643530547e+04
-7.762022416034986963e+04
-7.757017277149028087e+04
-7.762075555272525526e+04
-7.753912166137597524e+04
-7.761403015519333712e+04
-7.754051991503758472e+04
-7.753065850174124353e+04
-7.754098830238201481e+04
-7.753969952219896368e+04
-7.758024483421954210e+04
-7.753983281289668230e+04
-7.761305015202640789e+04
-7.754742442958883476e+04
-7.769029415244628035e+04
-7.753149410939296649e+04
-7.753834664487910050e+04
-7.765259847668364819e+04
-7.769347368562179327e+04
-7.754465998426973238e+04
-7.761108015706291189e+04
-7.762234783775079995e+04
-7.757639652902052330e+04
-7.766812083103590703e+04
-7.758125142830364348e+04
-7.761330519129824825e+04
-7.764628478617814835e+04
-7.762172736694540072e+04
-7.761940095993055729e+04
-7.761484387423863518e+04
-7.758682158803328639e+04
-7.764381860884955677e+04
-7.764749515605642227e+04
-7.761049071807967266e+04
-7.765557616973565018e+04
-7.769781704513110162e+04
-7.769984837781316310e+04
-7.754347330674027035e+04
-7.754884562919805467e+04
-7.757484590147747076e+04
-7.761838254964734369e+04
-7.768459889875640511e+04
-7.760923135605051357e+04
-7.758431831406030688e+04
-7.754764922451003804e+04
-7.757857465383643284e+04
-7.769957558904532925e+04
-7.757227505269885296e+04
-7.769786676267112489e+04
-7.765782151188349235e+04
-7.761914876602073491e+04
-7.754321585444876109e+04
-7.757316906262826524e+04
-7.753311755870688648e+04
-7.760676114994772070e+04
-7.769441107365069911e+04
-7.768323149008606561e+04
-7.764875691109200125e+04
-7.765246627365039603e+04
-7.765597949397773482e+04
-7.769767530622864433e+04
-7.761446957115760597e+04
-7.754898686987247493e+04
-7.757565730039293703e+04
-7.757885447011642100e+04
-7.753471926005600835e+04
-7.757685548762297549e+04
-7.757803158192355477e+04
-7.761556703250514693e+04
-7.760534602546459064e+04
-7.764654165995384392e+04
-7.755033038441144163e+04
-7.757000165347479924e+04
-7.765920661283953814e+04
-7.765915152786103135e+04
-7.761640099104923138e+04
-7.769351548026045202e+04
-7.764542644092853880e+04
-7.769086833506778930e+04
-7.761614016127448122e+04
-7.761135579055105336e+04
-7.768488123932617600e+04
-7.765022673741106701e+04
-7.758021323204168584e+04
-7.758013726813040557e+04
-7.754283989645964175e+04
-7.761937226488815213e+04
-7.757631031063247065e+04
-7.768720337264967384e+04
-7.753723222470328619e+04
-7.769471395642167772e+04
-7.770228923154476797e+04
-7.757026822350638395e+04
-7.765648418474527716e+04
-7.758314353552300599e+04
-7.760993611451379547e+04
-7.765782743667664181e+04
-7.768629428894670855e+04
-7.753125697549243341e+04
-7.766685059185684077e+04
-7.754356825266945816e+04
-7.761980214291984157e+04
-7.758036625019577332e+04
-7.758524118498100142e+04
-7.762121555349553819e+04
-7.768210696635137720e+04
-7.758306483831266814e+04
-7.753541718249664700e+04
-7.761772116400778759e+04
-7.768736469921565731e+04
-7.765763626202105661e+04
-7.754150493973675475e+04
-7.754199390389761538e+04
-7.757392321158081177e+04
-7.758084379441401688e+04
-7.757387036006998096e+04
-7.769316666765110858e+04
-7.758066482651133265e+04
-7.768729940092716424e+04
-7.757523319729155628e+04
-7.765575789631551015e+04
-7.761671771871094825e+04
-7.761130700630228966e+04
-7.758475041189511830e+04
-7.768950937718467321e+04
-7.757721547424313030e+04
-7.760986175700434251e+04
-7.765891963896916423e+04
-7.764661083440140646e+04
-7.762249254901120730e+04
-7.757117606110589986e+04
-7.764745437073480571e+04
-7.765078022558374505e+04
-7.769278638456015324e+04
-7.754841432824559161e+04
-7.761720299613582029e+04
-7.761601365849829745e+04
-7.757640417547895049e+04
-7.764811319839041971e+04
-7.757918517191932187e+04
-7.761759396924127941e+04
-7.757913786742367665e+04
-7.754394998265503091e+04
-7.757786527693185781e+04
-7.760107085171797371e+04
-7.769533792956647812e+04
-7.758178746432095068e+04
-7.754321908544600592e+04
-7.765279611043306068e+04
-7.765517724540171912e+04
-7.761627126628495171e+04
-7.753391331350459950e+04
-7.758885929199178645e+04
-7.764773982862294361e+04
-7.754160843242035480e+04
-7.764849766043860291e+04
-7.761756172176952532e+04
-7.768919929558430158e+04
-7.761236652886579395e+04
-7.765283746503824659e+04
-7.769040453766676364e+04
-7.762084863998313085e+04
-7.753899844559140911e+04
-7.758307558618510666e+04
-7.768451203420104866e+04
-7.761624970229461906e+04
-7.762009388916933676e+04
-7.757351565564514021e+04
-7.761320572526220349e+04
-7.765526142908871407e+04
-7.753968302476218378e+04
-7.765589159635321994e+04
-7.767545410620195617e+04
-7.761928492124631885e+04
-7.763084490263387852e+04
-7.762010421219762065e+04
-7.761386080313644197e+04
-7.758782598001396400e+04
-7.754160356541538204e+04
-7.753206202794500859e+04
-7.758702538599174295e+04
-7.769649026374945242e+04
-7.754076865992964304e+04
-7.765309389065908908e+04
-7.757700312381099502e+04
-7.768693477496824926e+04
-7.754182209098085877e+04
-7.769411346470139688e+04
-7.754025870743497217e+04
-7.761874859417446714e+04
-7.765456698524748208e+04
-7.760369696627775556e+04
-7.767693742847257818e+04
-7.757326943626318825e+04
-7.764402840274605842e+04
-7.765292525531072170e+04
-7.761764970441142214e+04
-7.754928505467972718e+04
-7.765750881457485957e+04
-7.768927565222448902e+04
-7.760957730362591974e+04
-7.757973166554007912e+04
-7.753580957457251498e+04
-7.769237862357926497e+04
-7.768825626498099882e+04
-7.758041011214401806e+04
-7.762389827467991563e+04
-7.765667208919863333e+04
-7.762083907632599585e+04
-7.757114825356956862e+04
-7.753876030719780829e+04
-7.753472045431824517e+04
-7.758034782830766926e+04
-7.768575954447789991e+04
-7.752789495134905155e+04
-7.753218536671322363e+04
-7.761802373137552058e+04
-7.754392645032671862e+04
-7.761303650383556669e+04
-7.762054391807068896e+04
-7.758131023626268143e+04
-7.764607129674420867e+04
-7.758902501651762577e+04
-7.754515594060691365e+04
-7.758408914363877557e+04
-7.766431074492928747e+04
-7.753502490737639891e+04
-7.753974510753709183e+04
-7.769890595902065979e+04
-7.761030067303412943e+04
-7.770431735199494869e+04
-7.757981899264428648e+04
-7.757717112278116110e+04
-7.754668083564967674e+04
-7.762295919418286940e+04
-7.758390360277002037e+04
-7.769448706028854940e+04
-7.753725026278031874e+04
-7.769124896775464003e+04
-7.753808073900124873e+04
-7.765524853420145519e+04
-7.761977337710189749e+04
-7.765367039553626091e+04
-7.754466701233389904e+04
-7.758344577016562107e+04
-7.765572111057922302e+04
-7.753569440794923867e+04
-7.765263126327165810e+04
-7.758417484476609388e+04
-7.767999726643160102e+04
-7.762274448863499856e+04
-7.753693944237011601e+04
-7.768749778823280940e+04
-7.762375286044932727e+04
-7.757353665197404916e+04
-7.764311122913743020e+04
-7.765555814693054708e+04
-7.769743421212417888e+04
-7.769422645367405494e+04
-7.760409384865354514e+04
-7.769014947083470179e+04
-7.766156534698391624e+04
-7.756736302804508887e+04
-7.764634635008533951e+04
-7.760974863533441385e+04
-7.769121057184849633e+04
-7.769672886375311646e+04
-7.756630989368529117e+04
-7.765064359953107487e+04
-7.769465366496224306e+04
-7.754303847171479720e+04
-7.754279189033136936e+04
-7.757986840210034279e+04
-7.765211488230066607e+04
-7.754159273387746362e+04
-7.769765369260305306e+04
-7.768626186627906282e+04
-7.764869805301941233e+04
-7.769497313216202019e+04
-7.757973477427693433e+04
-7.755298681070875318e+04
-7.761410412804612133e+04
-7.757780577938561328e+04
-7.765367094433284365e+04
-7.765995344204211142e+04
-7.766542990406681201e+04
-7.758020612358154904e+04
-7.765455288449025829e+04
-7.764781800378083426e+04
-7.761020136726564670e+04
-7.765438074010866694e+04
-7.764646850704119424e+04
-7.757427359552694543e+04
-7.762486059890624892e+04
-7.765683789348807477e+04
-7.761919548633327940e+04
-7.762052622756033088e+04
-7.769552076534384105e+04
-7.752439785698318155e+04
-7.765390192989437492e+04
-7.765900236270435562e+04
-7.768634808196446102e+04
-7.761484739185101353e+04
-7.768822888821466768e+04
-7.754265799082834565e+04
-7.761172261200775392e+04
-7.764554397488007089e+04
-7.769536288931242598e+04
-7.761348669674938719e+04
-7.769415191807750671e+04
-7.753664308304815495e+04
-7.768869071877890383e+04
-7.753357986639182491e+04
-7.761748044517777453e+04
-7.766006787181714026e+04
-7.754617661222323659e+04
-7.760859224822427495e+04
-7.753775483623403125e+04
-7.757767417656804901e+04
-7.761753411215524829e+04
-7.762075150430451322e+04
-7.756961769483632816e+04
