1.174402771507102443e+03 -1.706759603382193902e+01 3.902040433733241276e+00 -1.706759603382193902e+01 1.147684786812167204e+03 -3.642500907999436777e+01 3.902040433733241276e+00 -3.642500907999436777e+01 1.176714933713944447e+03
1.039471509626749139e+03 -2.264046378220222255e+00 -4.314631879757959609e+01 -2.264046378220222255e+00 1.021038816410681193e+03 4.795337827838255151e+01 -4.314631879757959609e+01 4.795337827838255151e+01 1.029313277446156462e+03
1.411517197783282654e+03 3.413574571283312764e+01 2.437594439351109799e+01 3.413574571283312764e+01 1.414507765668635102e+03 5.407434511552921208e+01 2.437594439351109799e+01 5.407434511552921208e+01 1.480955608390992438e+03
1.512046448514195163e+03 -2.501427764615794658e+01 6.582226213919125435e+00 -2.501427764615794658e+01 1.512479190064454770e+03 -3.874222363715496442e+01 6.582226213919125435e+00 -3.874222363715496442e+01 1.518413472277214851e+03
1.185652457734610834e+03 2.707613467873441238e+01 1.887893006185737832e+01 2.707613467873441238e+01 1.154205829470330855e+03 8.366430720316199654e+01 1.887893006185737832e+01 8.366430720316199654e+01 1.141864954846949331e+03
1.287096260647383360e+03 5.365781911089855249e+00 -2.955199083936103310e+00 5.365781911089855249e+00 1.322565762720412522e+03 -3.797945977579593624e+00 -2.955199083936103310e+00 -3.797945977579593624e+00 1.255626946866382013e+03
1.046068297136055207e+03 1.886710200042878816e+00 3.251210229310787270e+01 1.886710200042878816e+00 1.029877740647078781e+03 5.916057611211029688e+00 3.251210229310787270e+01 5.916057611211029688e+00 9.926284403534845069e+02
1.055684730323375106e+03 -1.090343444177445420e+01 6.104228706548534333e+00 -1.090343444177445420e+01 1.022853450601357849e+03 2.301269825489043797e+01 6.104228706548534333e+00 2.301269825489043797e+01 9.707099463566320310e+02
1.052125772501315396e+03 4.557164070555971946e+00 3.896594901316492354e+01 4.557164070555971946e+00 1.046382847472812045e+03 3.934644701502178776e+01 3.896594901316492354e+01 3.934644701502178776e+01 1.035354557041534918e+03
1.387060782167163552e+03 -1.550478253052111954e+00 -2.073217571822862837e+01 -1.550478253052111954e+00 1.438827888326963375e+03 -4.035997794211327516e+01 -2.073217571822862837e+01 -4.035997794211327516e+01 1.438792048052984910e+03
1.038396260993725036e+03 -4.413016639619212356e+01 -2.939623842577208634e+01 -4.413016639619212356e+01 1.034063580952747998e+03 -1.399926837560695692e+00 -2.939623842577208634e+01 -1.399926837560695692e+00 1.083066787958268151e+03
1.416475187364090971e+03 -3.256261990924470329e+00 -8.161605509409657344e+00 -3.256261990924470329e+00 1.419158201711515630e+03 -8.245624901930059814e-01 -8.161605509409657344e+00 -8.245624901930059814e-01 1.411820696446894544e+03
1.196466639519796900e+03 9.967974496160667996e+00 5.220525245456106411e+00 9.967974496160667996e+00 1.101682286174895353e+03 5.443970439834521891e+00 5.220525245456106411e+00 5.443970439834521891e+00 1.210885573114493354e+03
1.498028510568094362e+03 4.776363507796929042e+01 -4.641828051430513247e-01 4.776363507796929042e+01 1.526183005108688121e+03 -2.379439261207476974e+01 -4.641828051430513247e-01 -2.379439261207476974e+01 1.506590293907913747e+03
1.477427588177653888e+03 -6.516482559394553675e+00 -3.013269584182519978e+01 -6.516482559394553675e+00 1.526924723743272807e+03 2.669207876739849183e+01 -3.013269584182519978e+01 2.669207876739849183e+01 1.544903612587910857e+03
1.118004812203744905e+03 1.974347785607448458e+01 -4.081022865504728969e+01 1.974347785607448458e+01 1.228337200324158857e+03 2.173399051454527164e+00 -4.081022865504728969e+01 2.173399051454527164e+00 1.169989832509247663e+03
1.551609839729253054e+03 -2.342813996080827721e+01 5.768641950092194293e+01 -2.342813996080827721e+01 1.493283271400896638e+03 1.204994668109363731e+00 5.768641950092194293e+01 1.204994668109363731e+00 1.545213952472172423e+03
1.529939287787276953e+03 -2.490992778551889497e+00 7.597205237719991544e+01 -2.490992778551889497e+00 1.527411006944300652e+03 2.545878098501145814e+01 7.597205237719991544e+01 2.545878098501145814e+01 1.467148045842242709e+03
1.146586927077972177e+03 -1.078220095592776762e+00 -3.244112676602438405e+00 -1.078220095592776762e+00 1.220391161497292160e+03 -3.757917967674850246e+01 -3.244112676602438405e+00 -3.757917967674850246e+01 1.167587404777937081e+03
1.367774185627464931e+03 -1.951988406347006233e+01 -4.095295775238985669e+01 -1.951988406347006233e+01 1.459081565572802674e+03 -4.246113622076224203e+01 -4.095295775238985669e+01 -4.246113622076224203e+01 1.456763809971818091e+03
1.384904400802091459e+03 -2.432750132146464850e+01 1.746312764688871155e+01 -2.432750132146464850e+01 1.405412465575803253e+03 -1.735849741821549230e+01 1.746312764688871155e+01 -1.735849741821549230e+01 1.405636089930259686e+03
1.008154000977679289e+03 -3.148145737192669458e+01 1.435872429798224026e+01 -3.148145737192669458e+01 1.016126474832000781e+03 2.283538297246094828e+01 1.435872429798224026e+01 2.283538297246094828e+01 1.122318159149721851e+03
1.239617537972221271e+03 1.442070277764829278e+01 2.047454164490250506e+01 1.442070277764829278e+01 1.190548361441940415e+03 -3.398987001460751056e+00 2.047454164490250506e+01 -3.398987001460751056e+00 1.101509137004702325e+03
1.268325536707807942e+03 -1.125317270205358611e+01 2.784262705471929777e+01 -1.125317270205358611e+01 1.199655670500157157e+03 3.594228207878565939e+01 2.784262705471929777e+01 3.594228207878565939e+01 1.370682297679821886e+03
1.080715092629048513e+03 8.267604893475762884e-01 9.987848300482948360e+00 8.267604893475762884e-01 1.045261196865819784e+03 -2.259699040131926040e+01 9.987848300482948360e+00 -2.259699040131926040e+01 1.052162520842802905e+03
1.378785842182164743e+03 -1.499774400938241925e+01 -3.330778199471223555e+00 -1.499774400938241925e+01 1.369092480956836425e+03 -1.574483292137126789e+01 -3.330778199471223555e+00 -1.574483292137126789e+01 1.485182764106449213e+03
1.120830632430870082e+03 -8.441840090678836006e+00 3.686372699023679189e+01 -8.441840090678836006e+00 1.029933318766117964e+03 -8.347177852529767961e+00 3.686372699023679189e+01 -8.347177852529767961e+00 9.749681740693833945e+02
1.276589453730258583e+03 -2.420069822847941587e+00 -2.139731820675582696e+01 -2.420069822847941587e+00 1.357004947146120230e+03 2.445649232145378349e+01 -2.139731820675582696e+01 2.445649232145378349e+01 1.263188331232997598e+03
1.064307223489836588e+03 -9.547384686777750318e+00 2.190728371733631974e+01 -9.547384686777750318e+00 1.058053291936888854e+03 -1.973237120199086547e+01 2.190728371733631974e+01 -1.973237120199086547e+01 9.372828228331745777e+02
1.299336628248236138e+03 -7.966612495633802382e+01 -6.582702886994421299e+00 -7.966612495633802382e+01 1.296432091806967492e+03 -1.979990326729711114e+01 -6.582702886994421299e+00 -1.979990326729711114e+01 1.277665204337103887e+03
1.034283925714700217e+03 3.992857207548255616e+01 -3.815711895756308536e+00 3.992857207548255616e+01 1.030303963470565350e+03 4.620378054012836522e+00 -3.815711895756308536e+00 4.620378054012836522e+00 1.021220739369232206e+03
9.742922812717515626e+02 -3.598108316838590781e+01 -4.121629198013119222e+00 -3.598108316838590781e+01 1.025466427761810110e+03 -6.092770288755002639e+01 -4.121629198013119222e+00 -6.092770288755002639e+01 1.051630124269248654e+03
1.444989658533296961e+03 5.455525554375075359e+00 -2.258478414761744446e+01 5.455525554375075359e+00 1.352002995553064011e+03 -5.617075598123138036e+01 -2.258478414761744446e+01 -5.617075598123138036e+01 1.450502328938197707e+03
1.047575406280216384e+03 -1.064436974553728454e+01 3.489069807304128545e+01 -1.064436974553728454e+01 1.000083721247588755e+03 3.627045592332176227e+01 3.489069807304128545e+01 3.627045592332176227e+01 1.072308776609944971e+03
1.164807453267989786e+03 7.695892470355640569e+01 2.554093179701830607e+01 7.695892470355640569e+01 1.174218607445934367e+03 -3.105396203573946323e+01 2.554093179701830607e+01 -3.105396203573946323e+01 1.126790145212029756e+03
1.450387249638758931e+03 -3.943550675468711830e+01 -8.889135780924746655e+00 -3.943550675468711830e+01 1.393115900291345042e+03 4.318940805549914330e+00 -8.889135780924746655e+00 4.318940805549914330e+00 1.355882139609233718e+03
1.192851551885857816e+03 -1.312907386814429422e+01 -5.546499791174598215e+01 -1.312907386814429422e+01 1.196104941259808584e+03 -1.818431301973715364e+01 -5.546499791174598215e+01 -1.818431301973715364e+01 1.126226042437539718e+03
1.542915467282608915e+03 2.847028938861934577e+01 4.220762992847410544e+01 2.847028938861934577e+01 1.499480974381227725e+03 -2.894522698405139138e+01 4.220762992847410544e+01 -2.894522698405139138e+01 1.602339639826142729e+03
1.510813087221727528e+03 3.103251192178290552e+01 3.976879868263232254e-01 3.103251192178290552e+01 1.572008636817322440e+03 -1.882858059113808480e+01 3.976879868263232254e-01 -1.882858059113808480e+01 1.512863365306568312e+03
1.528776951742087704e+03 2.374628451964607834e+01 -5.807718345600819987e+01 2.374628451964607834e+01 1.626565547524201065e+03 4.264409280936118485e+00 -5.807718345600819987e+01 4.264409280936118485e+00 1.433011941246816605e+03
1.169508875828507371e+03 -6.089713929847244245e+00 2.607352901891744779e+01 -6.089713929847244245e+00 1.159687040222574524e+03 -4.590781235467719767e+01 2.607352901891744779e+01 -4.590781235467719767e+01 1.112315156029884292e+03
1.519410531071162495e+03 2.517009834320007133e+00 2.018633200665608807e-01 2.517009834320007133e+00 1.519293843911081694e+03 -1.805571355713025383e+01 2.018633200665608807e-01 -1.805571355713025383e+01 1.500567784136339469e+03
1.570612326603833026e+03 1.857585637598328532e+01 -2.201082289909415834e+01 1.857585637598328532e+01 1.507696672681531936e+03 1.690437091209944853e+01 -2.201082289909415834e+01 1.690437091209944853e+01 1.479734771459333842e+03
1.051464965234921920e+03 -4.712352378553138266e+01 -1.644889593695838670e+01 -4.712352378553138266e+01 9.959245215963034070e+02 6.834886189485466446e+01 -1.644889593695838670e+01 6.834886189485466446e+01 1.042614896439618633e+03
9.748800702188467540e+02 -2.223887699156891884e+01 7.809681083710378058e-01 -2.223887699156891884e+01 1.008686885619632449e+03 -3.583740771015269644e+01 7.809681083710378058e-01 -3.583740771015269644e+01 1.120742679290183560e+03
1.408857448956392091e+03 4.607303315855109815e+01 9.699233323354052416e+00 4.607303315855109815e+01 1.429904507722522112e+03 8.274929504818645398e+01 9.699233323354052416e+00 8.274929504818645398e+01 1.403434988244095166e+03
1.284020121920580095e+03 -9.667912012569633617e+00 1.484587350138887807e+01 -9.667912012569633617e+00 1.328505958784096492e+03 2.566687311632041002e+01 1.484587350138887807e+01 2.566687311632041002e+01 1.252076476229598711e+03
1.043912290671695018e+03 -1.435715651042745833e+01 7.745808927955053491e+01 -1.435715651042745833e+01 1.040879821005940130e+03 -1.732226977612581464e+01 7.745808927955053491e+01 -1.732226977612581464e+01 1.021930211312664596e+03
1.107366486375568229e+03 9.375620576386598515e+00 -1.483520560337309213e+01 9.375620576386598515e+00 1.161653541378852651e+03 4.695749856366869324e+01 -1.483520560337309213e+01 4.695749856366869324e+01 1.182318474938828103e+03
1.003808998212261940e+03 7.123087659039091690e+00 8.286251882642982736e+00 7.123087659039091690e+00 1.076220217426624686e+03 -1.699509236156701775e+01 8.286251882642982736e+00 -1.699509236156701775e+01 9.967335966514395977e+02
1.459368467267180904e+03 -1.450552597418568235e+00 -3.907795205463713017e+01 -1.450552597418568235e+00 1.405221344222060907e+03 -4.202361517506269450e+01 -3.907795205463713017e+01 -4.202361517506269450e+01 1.425389813908641827e+03
1.029794330611946862e+03 2.421744147982173345e+01 -2.945673468916198701e+01 2.421744147982173345e+01 1.049774960346866010e+03 -1.313883209576519917e+01 -2.945673468916198701e+01 -1.313883209576519917e+01 1.082661721523815913e+03
1.424642266525627747e+03 -6.604051706861824300e+00 4.823149627267137163e+01 -6.604051706861824300e+00 1.395661887444805188e+03 -4.333795936443866736e+01 4.823149627267137163e+01 -4.333795936443866736e+01 1.388850877684802299e+03
1.148300516692649126e+03 -2.369025517461731667e+01 -3.430915882670964834e+01 -2.369025517461731667e+01 1.167062938605924955e+03 -1.855905982848913993e+01 -3.430915882670964834e+01 -1.855905982848913993e+01 1.246153127231758617e+03
1.010913862913824914e+03 1.192354619263885240e+01 -2.784377191405850382e+01 1.192354619263885240e+01 1.086903682676892913e+03 -3.788730009674131338e+01 -2.784377191405850382e+01 -3.788730009674131338e+01 1.063952741461059759e+03
1.270711487791644231e+03 3.074109733082450546e+01 -5.512202253112081962e+01 3.074109733082450546e+01 1.359040634867583776e+03 -1.672452299315202850e+01 -5.512202253112081962e+01 -1.672452299315202850e+01 1.304490683314223588e+03
1.043019329317392931e+03 -3.068680222485972564e+01 1.262316586222632431e+00 -3.068680222485972564e+01 1.081016533224223622e+03 4.197658260644482553e+00 1.262316586222632431e+00 4.197658260644482553e+00 1.041056009632030509e+03
1.201828492723920817e+03 3.903427990208017206e+01 2.605770857900128235e+01 3.903427990208017206e+01 1.164009192436871444e+03 -1.364368340335430219e+01 2.605770857900128235e+01 -1.364368340335430219e+01 1.102213321963851968e+03
1.305624776109660843e+03 -5.440607649665577839e+01 -7.577463850807532708e+00 -5.440607649665577839e+01 1.345097977770680927e+03 -3.615374221470342775e+01 -7.577463850807532708e+00 -3.615374221470342775e+01 1.326055431565962408e+03
1.336270311713739829e+03 7.338555625358906376e+00 -2.889285221980113505e+01 7.338555625358906376e+00 1.281864311578519391e+03 3.978507578556826729e+01 -2.889285221980113505e+01 3.978507578556826729e+01 1.266839056373609083e+03
1.280656328239120285e+03 2.776345432659747559e+01 -3.910381262390760071e+01 2.776345432659747559e+01 1.353769952476358185e+03 1.919835956314487335e+00 -3.910381262390760071e+01 1.919835956314487335e+00 1.225222523352637154e+03
1.423149683342285016e+03 -1.865714526097666948e+01 -6.382810379631571607e+01 -1.865714526097666948e+01 1.402805771830736376e+03 4.965206530582131705e+01 -6.382810379631571607e+01 4.965206530582131705e+01 1.391973782665893168e+03
1.035199366896992842e+03 3.184412418372422593e+01 6.441198363400195248e+00 3.184412418372422593e+01 1.046756539931683619e+03 -5.300175527637924944e+01 6.441198363400195248e+00 -5.300175527637924944e+01 1.028930611877658293e+03
1.033677454951400932e+03 3.262092031307606832e-01 3.100839609185534940e+01 3.262092031307606832e-01 9.900048252354177976e+02 5.135748426532401112e+01 3.100839609185534940e+01 5.135748426532401112e+01 1.062184783414768617e+03
1.285252097810516034e+03 3.873923338157077723e+01 -7.359837188584484657e+00 3.873923338157077723e+01 1.239285531105836526e+03 -4.164106481939392701e+00 -7.359837188584484657e+00 -4.164106481939392701e+00 1.337222675812903617e+03
1.039694446962311531e+03 3.066935083416498387e+01 2.724394309702714523e+01 3.066935083416498387e+01 9.975339632672306607e+02 4.435172090424631364e+01 2.724394309702714523e+01 4.435172090424631364e+01 1.019271936440644822e+03
1.204872490416355959e+03 -1.373423784878598619e+00 -3.158237083427282599e+01 -1.373423784878598619e+00 1.154191896890655016e+03 -2.862969993255303791e+01 -3.158237083427282599e+01 -2.862969993255303791e+01 1.169682399207516028e+03
1.253442802186572862e+03 8.707614426173226008e+00 1.339053095459490805e+01 8.707614426173226008e+00 1.369348395941870194e+03 -1.260823308496595097e+01 1.339053095459490805e+01 -1.260823308496595097e+01 1.285793760090503156e+03
1.450725340777067458e+03 -3.073444245018668397e+01 -1.119388141250592827e+00 -3.073444245018668397e+01 1.403093892845192386e+03 -2.782638757009586783e+01 -1.119388141250592827e+00 -2.782638757009586783e+01 1.371646008936417957e+03
1.189263489532741460e+03 -3.146877585646446374e+00 -2.860877035644269384e+01 -3.146877585646446374e+00 1.174896070395344850e+03 5.390512085499899797e+01 -2.860877035644269384e+01 5.390512085499899797e+01 1.132232836129959878e+03
1.504757312093193150e+03 3.409228339649512662e+01 -3.216746399146242652e+01 3.409228339649512662e+01 1.573430274629256246e+03 -2.058544947313749773e+01 -3.216746399146242652e+01 -2.058544947313749773e+01 1.503203561893705910e+03
1.351820972378202896e+03 -3.180475789148785637e+01 5.138901722485633172e+01 -3.180475789148785637e+01 1.297991639109695143e+03 -1.107790305241100270e+01 5.138901722485633172e+01 -1.107790305241100270e+01 1.251129826128806599e+03
1.341598353338116567e+03 9.305162572006743460e+00 -4.467733093523664678e+01 9.305162572006743460e+00 1.300754001877699238e+03 -4.224239914321131550e+01 -4.467733093523664678e+01 -4.224239914321131550e+01 1.293889214021640328e+03
1.458853443350125872e+03 -1.302146475044148488e+00 -1.100219110446048276e+01 -1.302146475044148488e+00 1.489934559566898542e+03 2.699135998945012105e+01 -1.100219110446048276e+01 2.699135998945012105e+01 1.372221818826510344e+03
1.358673682477651255e+03 3.845919261040579329e+01 -1.133632946861228419e+01 3.845919261040579329e+01 1.423322654794847494e+03 -3.075353743197205247e+01 -1.133632946861228419e+01 -3.075353743197205247e+01 1.395565035984270935e+03
1.179314809767502084e+03 2.279710457731951934e+01 2.377627865937092366e+01 2.279710457731951934e+01 1.128160250883322760e+03 -2.284940841272225853e+01 2.377627865937092366e+01 -2.284940841272225853e+01 1.179930048531133480e+03
1.269779700019868415e+03 -1.468813998853942415e+01 -4.018655023029265294e+01 -1.468813998853942415e+01 1.342274490607135931e+03 -5.765055047815562261e+01 -4.018655023029265294e+01 -5.765055047815562261e+01 1.329156586788814820e+03
1.240864073510556409e+03 6.686035060941215136e+01 -3.153770026555175932e+01 6.686035060941215136e+01 1.149960916512913855e+03 -1.060622466841682865e+01 -3.153770026555175932e+01 -1.060622466841682865e+01 1.136084827498058985e+03
1.135943560137996883e+03 1.180806752165847051e+01 -4.076515750048469755e+01 1.180806752165847051e+01 1.257816788671683298e+03 1.833984903653584686e+00 -4.076515750048469755e+01 1.833984903653584686e+00 1.114817211337020808e+03
1.240304962787966588e+03 8.480722135492733571e+01 8.270068362643822724e+00 8.480722135492733571e+01 1.357957727544620184e+03 4.646442301522453988e+01 8.270068362643822724e+00 4.646442301522453988e+01 1.300196222002105969e+03
1.292403642360144886e+03 2.250673570020432379e+01 -7.553887341381379628e+00 2.250673570020432379e+01 1.296908822428190888e+03 -4.408964882813924646e+01 -7.553887341381379628e+00 -4.408964882813924646e+01 1.282539620308799613e+03
1.430586641105820490e+03 3.004352949196064060e+01 -3.208099800567285342e+01 3.004352949196064060e+01 1.358345452516543219e+03 3.542842673371787043e+00 -3.208099800567285342e+01 3.542842673371787043e+00 1.459804588622210986e+03
1.065351170528951343e+03 3.794227785358329186e+01 -1.166837748935793151e+01 3.794227785358329186e+01 9.992671695881222149e+02 6.514582544803601216e+00 -1.166837748935793151e+01 6.514582544803601216e+00 9.537464516700334798e+02
1.185194504978332589e+03 5.170118707672920699e+00 3.447938463502842410e+01 5.170118707672920699e+00 1.157035203256507884e+03 3.969200060453029266e+01 3.447938463502842410e+01 3.969200060453029266e+01 1.170878730495906666e+03
1.131775966707348061e+03 -5.029668832635035614e+00 -2.699027874619816814e+01 -5.029668832635035614e+00 1.149232617148162944e+03 1.414534975711800513e+01 -2.699027874619816814e+01 1.414534975711800513e+01 1.208479480130572256e+03
1.444505174356116186e+03 -1.139176105646288839e+01 -2.886191814660681132e+01 -1.139176105646288839e+01 1.410135231179872562e+03 2.759295790472094723e+01 -2.886191814660681132e+01 2.759295790472094723e+01 1.428005587547833557e+03
9.650115607867782046e+02 1.798458770524394623e+01 3.307056715580624484e+01 1.798458770524394623e+01 1.085622900382619491e+03 -1.750786809367612307e+01 3.307056715580624484e+01 -1.750786809367612307e+01 1.056770245715603323e+03
1.008341774878519232e+03 -4.085225389210292946e+01 -5.706019501921549164e+01 -4.085225389210292946e+01 1.069655059810460898e+03 -4.060645441776441800e+01 -5.706019501921549164e+01 -4.060645441776441800e+01 1.018205050784560171e+03
1.052133929674017736e+03 3.056604607217743208e+01 9.206381595874741919e+00 3.056604607217743208e+01 1.036682542802528587e+03 8.115366384616842765e+01 9.206381595874741919e+00 8.115366384616842765e+01 9.918794304182963515e+02
1.572798759802361246e+03 1.559326547764631954e+01 -1.268531621569289669e+01 1.559326547764631954e+01 1.556025433784842789e+03 5.108791017935821799e+00 -1.268531621569289669e+01 5.108791017935821799e+00 1.536920268030204625e+03
1.171862127693301318e+03 -4.320080654330195813e+01 -3.387547390714129847e+01 -4.320080654330195813e+01 1.188508480835633236e+03 -1.348389197577378340e+01 -3.387547390714129847e+01 -1.348389197577378340e+01 1.196317050552975388e+03
1.383864061341205115e+03 -7.630772450728492196e+00 -3.486351984058693176e+01 -7.630772450728492196e+00 1.433214154279069817e+03 1.130586119916952548e+01 -3.486351984058693176e+01 1.130586119916952548e+01 1.443031383343261950e+03
1.149281743911541298e+03 6.352322080832785645e+01 -6.145743345917864531e+01 6.352322080832785645e+01 1.183298941596357736e+03 4.990546997273960983e+01 -6.145743345917864531e+01 4.990546997273960983e+01 1.190717167523563148e+03
1.121590597365132908e+03 -1.467679931313182173e+01 5.095909936902944537e+01 -1.467679931313182173e+01 1.262828867290413655e+03 7.444295151492856810e+00 5.095909936902944537e+01 7.444295151492856810e+00 1.123448097252214211e+03
1.042804830259922483e+03 -4.841564504318480289e+01 -2.808661373367125691e+01 -4.841564504318480289e+01 1.052808885901444910e+03 -1.673080131182459596e+01 -2.808661373367125691e+01 -1.673080131182459596e+01 1.016811469408435983e+03
1.445909456072668263e+03 -1.281166633354253470e+01 5.755845609955652975e+00 -1.281166633354253470e+01 1.373815328209276231e+03 6.251539199802542690e+00 5.755845609955652975e+00 6.251539199802542690e+00 1.434033000738262899e+03
1.047508992337951668e+03 -3.812808585027480035e+01 4.005176386698277469e+01 -3.812808585027480035e+01 1.019885403017434555e+03 -1.227968984496703264e+01 4.005176386698277469e+01 -1.227968984496703264e+01 1.084450698833740489e+03
1.314706224736847844e+03 6.877900276380532141e+00 -2.062595707594800842e+01 6.877900276380532141e+00 1.223036579625075547e+03 4.188337681893214537e+00 -2.062595707594800842e+01 4.188337681893214537e+00 1.294908789021234043e+03
1.514129096905504639e+03 1.105062745521649070e+00 5.701590374299770048e+01 1.105062745521649070e+00 1.647475334870798861e+03 -1.132551938407975811e+01 5.701590374299770048e+01 -1.132551938407975811e+01 1.473809896017715573e+03
1.506155164307378982e+03 -2.211685197261765623e+01 5.226271513904316102e+00 -2.211685197261765623e+01 1.501459231624239010e+03 5.763290062852139961e+00 5.226271513904316102e+00 5.763290062852139961e+00 1.616020229181059676e+03
1.505813254680916316e+03 -2.643022172590643848e+01 -1.061835999571854039e+00 -2.643022172590643848e+01 1.529394346657348024e+03 -1.264767029184317693e+01 -1.061835999571854039e+00 -1.264767029184317693e+01 1.526080725329199595e+03
1.155614716096898746e+03 7.468141578199039543e+01 -4.780697817403463290e+01 7.468141578199039543e+01 1.183876045013427984e+03 -2.475489437606156784e+01 -4.780697817403463290e+01 -2.475489437606156784e+01 1.193885597951835734e+03
1.397159268670963911e+03 9.960127602037558425e-01 1.515272656540969365e+01 9.960127602037558425e-01 1.393911846031850700e+03 8.617001949781613490e+00 1.515272656540969365e+01 8.617001949781613490e+00 1.454615168601562345e+03
1.205381089468742630e+03 4.674002337636879645e+01 -4.353918591292547546e+01 4.674002337636879645e+01 1.142354671216053475e+03 4.474001329821463813e+00 -4.353918591292547546e+01 4.474001329821463813e+00 1.211951710260437721e+03
1.195868714543870738e+03 1.332443764893128169e+01 -2.480737788155396117e+01 1.332443764893128169e+01 1.184735199234004085e+03 -2.990124014717931544e+01 -2.480737788155396117e+01 -2.990124014717931544e+01 1.124614637813564968e+03
1.267297285753181541e+03 -4.779239451538995098e+01 1.219270073501514395e-01 -4.779239451538995098e+01 1.297104620492338881e+03 -2.618422524288441267e+01 1.219270073501514395e-01 -2.618422524288441267e+01 1.298435057499627192e+03
1.304983235775465118e+03 3.575791835714919653e+00 2.150003622873705567e+01 3.575791835714919653e+00 1.275635055743359089e+03 3.549062016872942138e+01 2.150003622873705567e+01 3.549062016872942138e+01 1.312526696921509028e+03
1.406580408852220216e+03 2.106286213500632343e+01 -2.007548043676128557e+01 2.106286213500632343e+01 1.437781104560189760e+03 -2.718343859665843354e+01 -2.007548043676128557e+01 -2.718343859665843354e+01 1.415666529047887252e+03
1.158668286996865618e+03 -2.823199879480552354e+01 -3.279724929577855885e+00 -2.823199879480552354e+01 1.104969990701391907e+03 2.514721589314031647e+01 -3.279724929577855885e+00 2.514721589314031647e+01 1.241739497238032527e+03
1.391410103401589822e+03 5.093016537076849204e+01 -3.861246471531515567e+01 5.093016537076849204e+01 1.446783018544694187e+03 1.861470233723720469e+01 -3.861246471531515567e+01 1.861470233723720469e+01 1.377193480060062939e+03
1.060854961748430469e+03 2.702784807510415632e+01 -4.455158146531040586e+01 2.702784807510415632e+01 1.027371230965121867e+03 4.939816978797193059e+00 -4.455158146531040586e+01 4.939816978797193059e+00 1.064418649777852352e+03
1.500121968546920698e+03 2.217084936025580433e+01 3.153954783260153150e+01 2.217084936025580433e+01 1.547999252611043858e+03 1.867223905524643257e+01 3.153954783260153150e+01 1.867223905524643257e+01 1.561678408804337550e+03
1.561076277309351326e+03 -2.819414749638797346e+01 -2.011224649691715882e+01 -2.819414749638797346e+01 1.515919920552102440e+03 1.389152949531861747e+00 -2.011224649691715882e+01 1.389152949531861747e+00 1.503222712029373952e+03
1.188657682320622371e+03 -1.202087211464197480e+01 -1.341017523000312683e-01 -1.202087211464197480e+01 1.173837502360268445e+03 1.376172717086234343e+01 -1.341017523000312683e-01 1.376172717086234343e+01 1.114833522848716484e+03
1.296921286358356838e+03 -5.777216300402115934e+01 4.615342346013902386e+01 -5.777216300402115934e+01 1.270610640815183160e+03 -3.069602995878151575e+01 4.615342346013902386e+01 -3.069602995878151575e+01 1.314567489835086690e+03
1.542923503642099377e+03 -1.798504672034836105e+01 -8.589835751254926155e-01 -1.798504672034836105e+01 1.510911992796304958e+03 2.075404569986081427e+01 -8.589835751254926155e-01 2.075404569986081427e+01 1.485433830509974769e+03
1.384643814189698787e+03 -5.839294394345140660e+01 1.086526061273720201e+00 -5.839294394345140660e+01 1.438251241030622850e+03 -4.414583002830192271e+01 1.086526061273720201e+00 -4.414583002830192271e+01 1.392161988780182355e+03
1.375709228346866666e+03 2.363402257858444599e+01 -1.626566948306817650e+01 2.363402257858444599e+01 1.469020098989575672e+03 3.518917092761620680e+00 -1.626566948306817650e+01 3.518917092761620680e+00 1.403622986487767548e+03
1.190264563650290711e+03 -2.966942581357472974e+01 3.527207447000489537e+01 -2.966942581357472974e+01 1.136168418527940503e+03 -2.471361285524084650e+01 3.527207447000489537e+01 -2.471361285524084650e+01 1.207708142263363698e+03
1.178929507818858156e+03 1.419933468168729007e+01 -1.817978089037964651e+01 1.419933468168729007e+01 1.130058136497229498e+03 3.782076866057224152e+01 -1.817978089037964651e+01 3.782076866057224152e+01 1.183414789974927999e+03
1.406210059521521544e+03 -3.544855301891050203e+01 -4.500492476197776881e+01 -3.544855301891050203e+01 1.382764429955554988e+03 -8.917472491648801736e+00 -4.500492476197776881e+01 -8.917472491648801736e+00 1.374098515050009155e+03
1.430445611053392213e+03 1.600504864838805830e+01 -3.437172862724803224e+01 1.600504864838805830e+01 1.394464072301342640e+03 5.258480705638148578e+01 -3.437172862724803224e+01 5.258480705638148578e+01 1.478511798132002696e+03
1.321831670705575107e+03 9.706643196450563948e+00 -3.832744865508084331e+01 9.706643196450563948e+00 1.509625662915360181e+03 -2.135124397228639737e+01 -3.832744865508084331e+01 -2.135124397228639737e+01 1.367079024183520005e+03
1.413981545465361023e+03 -8.245181791616916556e+00 2.491977161001564056e+01 -8.245181791616916556e+00 1.383554022537766286e+03 2.583689944256908078e+01 2.491977161001564056e+01 2.583689944256908078e+01 1.453578928928912546e+03
1.414158068959232651e+03 2.013304433015997219e+01 -1.924015282564952045e+01 2.013304433015997219e+01 1.370717972205945671e+03 2.131544906943132389e+01 -1.924015282564952045e+01 2.131544906943132389e+01 1.457326863546554250e+03
1.489621759732870032e+03 3.206443100225914122e+01 5.140903070368017325e+01 3.206443100225914122e+01 1.508239598314662317e+03 3.784325423554756895e+01 5.140903070368017325e+01 3.784325423554756895e+01 1.563233578472796353e+03
1.523509816415557907e+03 4.599305188451491944e+01 -4.482037912666045543e+01 4.599305188451491944e+01 1.545738809517570644e+03 5.712517048729907287e+00 -4.482037912666045543e+01 5.712517048729907287e+00 1.590100417444451296e+03
1.569708383899253704e+03 5.536226974139132295e+01 -3.717025801093869486e+00 5.536226974139132295e+01 1.545623844130812131e+03 1.090734164212216406e+01 -3.717025801093869486e+00 1.090734164212216406e+01 1.509325045713994314e+03
1.074766438195689716e+03 -4.312597369932433367e+00 -4.413519605812422952e+01 -4.312597369932433367e+00 1.042882974532084518e+03 -1.314795316260469171e+01 -4.413519605812422952e+01 -1.314795316260469171e+01 1.009078530086632327e+03
1.259482012399741279e+03 -2.941039150413831749e+01 -4.552754117715858229e+01 -2.941039150413831749e+01 1.334948216896884333e+03 -5.099658486868955976e+01 -4.552754117715858229e+01 -5.099658486868955976e+01 1.312278677013940978e+03
1.410314720264394509e+03 -4.251517902249819514e+01 -1.547637847113091780e+01 -4.251517902249819514e+01 1.448911211256238403e+03 5.270010182244092789e+00 -1.547637847113091780e+01 5.270010182244092789e+00 1.382912936585169973e+03