1.019495000000000040e+01 5.309580000000000410e+00 1.420399999999999996e-01 8.596629999999999328e+00 1.085914999999999964e+01 1.096814999999999962e+01 3.155060000000000198e+00 7.539749999999999730e+00 6.468169999999999753e+00 9.974949999999999761e+00 1.107104999999999961e+01 1.062740000000000018e+00 7.825470000000000148e+00 5.288039999999999630e+00 2.301999999999999880e-01 1.342764999999999986e+01 5.145220000000000127e+00 4.018550000000000288e+00 5.169249999999999901e+00 8.027999999999999581e-01 1.225864999999999938e+01 1.176404999999999923e+01 1.082784999999999975e+01 9.002150000000000318e+00 7.171429999999999971e+00 8.650629999999999598e+00 2.311199999999999921e+00 8.680920000000000414e+00 1.041075000000000017e+01 5.191900000000000404e+00 1.161454999999999949e+01 5.503169999999999895e+00 7.378980000000000317e+00 1.039124999999999943e+01 4.315760000000000041e+00 5.636490000000000222e+00 1.339235000000000042e+01 1.264284999999999926e+01 7.827820000000000000e+00 6.993520000000000181e+00 1.103245000000000076e+01 1.293294999999999995e+01 8.693319999999999936e+00 7.385769999999999946e+00 1.167665000000000042e+01 6.433430000000000426e+00 8.584080000000000155e+00 6.352800000000000225e+00 6.569420000000000037e+00 8.268430000000000391e+00 8.782049999999999912e+00 6.897770000000000401e+00 2.032700000000000173e+00 7.218759999999999621e+00 6.186460000000000292e+00 1.051975000000000016e+01 9.477050000000000196e+00 7.611430000000000362e+00 3.989650000000000141e+00 9.992950000000000443e+00 2.181119999999999948e+00 7.063449999999999562e+00 1.812359999999999971e+00 3.128060000000000063e+00 1.139874999999999972e+01 7.448010000000000019e+00 4.498300000000000076e-01 5.995370000000000310e+00 7.486279999999999824e+00 7.748179999999999623e+00 1.240934999999999988e+01 1.095359999999999889e+00 2.737740000000000062e+00 7.453549999999999898e+00 1.074554999999999971e+01 9.837550000000000239e+00 1.396789999999999976e+00 1.040194999999999936e+01 3.266000000000000014e+00 4.100579999999999892e+00 3.871970000000000134e+00 7.287609999999999921e+00 7.749710000000000321e+00 2.310599999999999876e-01 4.954760000000000275e+00 6.235190000000000232e+00 3.415230000000000210e+00 1.030305000000000071e+01 2.240639999999999965e+00 2.195730000000000182e+00 1.215305000000000035e+01 6.491729999999999556e+00 2.524319999999999897e+00 1.016885000000000083e+01 1.348254999999999981e+01 1.636770000000000058e+00 2.593799999999999994e-01 1.241995000000000005e+01 5.459069999999999645e+00 1.268904999999999994e+01 8.889450000000000074e+00 4.378479999999999706e+00 1.247765000000000057e+01 1.076524999999999999e+01 1.125184999999999924e+01 9.851050000000000750e+00 3.977609999999999868e+00 3.866140000000000132e+00 3.149899999999999922e-01 5.828879999999999839e+00 7.458700000000000330e-01 5.135899999999999910e-01 9.830900000000000194e-01 3.963820000000000121e+00 2.077890000000000015e+00 1.242365000000000030e+01 2.636700000000000155e-01 7.738879999999999981e+00 6.770880000000000010e+00 6.182970000000000077e+00 1.223375000000000057e+01 1.290675000000000061e+01 1.244524999999999970e+01 1.241615000000000002e+01 4.134689999999999976e+00 1.332845000000000013e+01 4.040099999999999802e-01 1.717750000000000110e+00 1.071604999999999919e+01 8.514670000000000627e+00 6.590760000000000396e+00 8.428620000000000445e+00 6.485820000000000363e+00 9.761749999999999261e+00 4.376960000000000406e+00 3.268920000000000048e+00 1.091344999999999921e+01 3.444380000000000219e+00 9.439249999999999474e+00 8.995350000000000179e+00 9.955149999999999721e+00 2.134800000000000031e-01 8.459759999999999280e+00 6.712279999999999802e+00 3.620309999999999917e+00 3.956690000000000040e+00 1.410940000000000083e+00 5.609899999999999665e+00 1.272944999999999993e+01 2.217060000000000031e+00 1.047685000000000066e+01 1.252865000000000073e+01 4.306370000000000253e+00 4.053069999999999951e+00 6.209579999999999878e+00 9.222950000000000870e+00 4.008599999999999941e-01 1.315104999999999968e+01 9.660450000000000870e+00 7.143899999999999695e-01 8.180600000000000094e-01 1.282264999999999944e+01 3.471099999999999852e+00 1.337674999999999947e+01 2.793200000000000127e+00 1.227895000000000003e+01 8.237499999999999822e-01 2.242589999999999861e+00 4.237899999999999778e+00 1.123595000000000077e+01 8.769099999999999673e-01 1.081744999999999912e+01 7.443439999999999834e+00 3.857639999999999958e+00 3.205540000000000056e+00 9.546549999999999869e+00 1.161565000000000047e+01 8.401889999999999858e+00 5.892800000000000260e-01 8.592579999999999885e+00 6.021930000000000227e+00 5.219540000000000290e+00 5.392509999999999692e+00 9.591649999999999565e+00 5.282350000000000101e+00 1.050254999999999939e+01 1.002185000000000059e+01 1.203604999999999947e+01 1.228105000000000047e+01 6.148799999999999821e-01 3.082310000000000105e+00 2.936329999999999885e+00 6.134369999999999656e+00 1.286444999999999972e+01 5.603489999999999860e+00 2.727899999999999991e+00 7.410400000000000098e+00 4.118249999999999744e+00 5.784679999999999822e+00 5.765939999999999621e+00 1.034215000000000018e+01 3.230989999999999807e+00 1.029000000000000054e-01 6.428329999999999878e+00 3.452859999999999818e+00 9.165250000000000341e+00 1.521130000000000093e+00 2.398979999999999890e+00 1.995409999999999906e+00 1.857429999999999914e+00 1.394309999999999938e+00 8.329449999999999577e+00 1.255315000000000047e+01 1.103904999999999959e+01 2.553119999999999834e+00 1.199845000000000006e+01 4.317510000000000403e+00 1.115395000000000003e+01 5.539049999999999585e+00 1.073574999999999946e+01 7.193220000000000169e+00 8.926450000000000884e+00 2.915300000000000114e-01 1.081284999999999918e+01 3.537690000000000001e+00 1.440500000000000114e-01 9.413650000000000517e+00 9.718949999999999534e+00 7.173969999999999736e+00 6.355220000000000091e+00 2.431960000000000122e+00 1.802959999999999896e+00 8.930849999999999511e+00 8.068110000000000781e+00 7.057879999999999932e+00 3.914890000000000203e+00 2.833909999999999929e+00 2.539429999999999854e+00 1.202234999999999943e+01 9.760949999999999349e+00 3.514320000000000110e+00 6.481400000000000494e-01 1.071654999999999980e+01 7.067680000000000184e+00 1.218154999999999966e+01 7.917329999999999757e+00 1.021155000000000079e+01 1.036395000000000088e+01 3.309039999999999981e+00 2.765340000000000131e+00 3.058570000000000011e+00 9.879550000000000054e+00 7.053550000000000431e+00 9.195999999999999730e-01 1.344705000000000084e+01 4.327169999999999739e+00 4.120479999999999698e+00 1.140114999999999945e+01 1.074394999999999989e+01 8.639499999999999957e-01 8.055920000000000414e+00 8.288140000000000285e+00 1.570199999999999929e-01 4.587539999999999729e+00 5.700719999999999565e+00 4.287449999999999761e+00 6.677999999999999492e-01 1.034854999999999947e+01 1.032954999999999934e+01 7.057330000000000325e+00 3.319099999999999828e-01 1.103705000000000069e+01 1.114900000000000002e+00 1.068805000000000049e+01 7.872709999999999653e+00 6.266259999999999941e+00 3.597669999999999924e+00 2.123180000000000067e+00 5.210829999999999629e+00 1.169585000000000008e+01 6.228550000000000253e+00 1.085055000000000014e+01 8.822950000000000514e+00 1.904349999999999987e+00 1.240075000000000038e+01 4.994930000000000092e+00 1.129625000000000057e+01 1.151345000000000063e+01 9.099399999999999711e-01 2.956360000000000099e+00 8.674070000000000391e+00 7.717579999999999885e+00 2.427869999999999973e+00 4.860219999999999985e+00 1.276104999999999912e+01 9.068649999999999878e+00 1.167300000000000004e-01 6.009430000000000049e+00 2.286449999999999871e+00 1.085164999999999935e+01 4.443340000000000067e+00 1.883650000000000047e+00 7.319300000000000139e+00 1.255674999999999919e+01 2.212040000000000006e+00 7.255679999999999907e+00 1.129635000000000034e+01 7.925200000000000022e-01 5.758390000000000342e+00 1.140215000000000067e+01 7.320839999999999570e+00 1.276104999999999912e+01 4.556000000000000050e+00 5.467349999999999710e+00 7.133980000000000210e+00 1.565029999999999921e+00 4.886700000000000266e+00 5.782560000000000144e+00 3.258249999999999869e+00 1.767490000000000006e+00 9.939049999999999940e+00 7.543449999999999989e+00 7.811309999999999754e+00 1.238555000000000028e+01 3.701789999999999914e+00 8.494109999999999161e+00 1.093064999999999998e+01 9.549950000000000827e+00 1.168609999999999927e+00 1.738529999999999909e+00 3.290420000000000122e+00 4.721379999999999910e+00 2.574809999999999821e+00 4.048370000000000246e+00 7.213029999999999831e+00 3.756299999999999972e+00 5.119909999999999961e+00 2.999880000000000102e+00 1.170725000000000016e+01 2.989650000000000141e+00 7.902420000000000222e+00 1.064249999999999918e+00 1.109384999999999977e+01 4.406320000000000014e+00 4.464999999999999858e+00 5.677080000000000126e+00 9.090650000000000119e+00 5.308580000000000076e+00 6.420790000000000219e+00 1.289525000000000077e+01 6.931790000000000340e+00 9.106849999999999667e+00 3.937300000000000022e+00 5.103349999999999831e+00 1.089184999999999981e+01 9.181150000000000588e+00 6.479739999999999611e+00 8.745309999999999917e+00 1.438909999999999911e+00 4.683609999999999829e+00 6.044719999999999871e+00 3.643110000000000070e+00 1.826999999999999957e+00 1.292345000000000077e+01 4.154900000000000260e-01 1.306654999999999944e+01 1.147284999999999933e+01 8.660140000000000171e+00 3.708320000000000061e+00 1.279485000000000028e+01 5.263250000000000206e+00 7.854580000000000339e+00 1.099815000000000076e+01 2.069859999999999811e+00 1.072705000000000020e+01 2.226480000000000015e+00 3.358019999999999783e+00 8.583280000000000243e+00 5.651679999999999815e+00 8.837000000000000410e-01 1.351265199999999922e+01 1.090424999999999933e+01 1.311084999999999923e+01 1.229945000000000022e+01 1.127094999999999914e+01 4.509590000000000209e+00 4.707899999999999863e-01 1.017375000000000007e+01 8.509380000000000166e+00 8.877349999999999852e+00 6.175480000000000302e+00 9.176750000000000185e+00 9.708449999999999136e+00 3.724720000000000031e+00 1.082784999999999975e+01 1.153814999999999991e+01 4.264870000000000161e+00 1.084895000000000032e+01 6.933379999999999654e+00 2.666459999999999830e+00 4.792229999999999990e+00 4.847050000000000303e+00 1.276370000000000005e+00 1.132494999999999941e+01 1.835100000000000064e-01 2.121080000000000076e+00 9.459049999999999514e+00 1.243895000000000017e+01 8.006840000000000401e+00 1.667899999999999938e+00 7.957840000000000025e+00 1.721100000000000074e+00 2.318000000000000060e-01 1.390599999999999892e-01 1.165104999999999968e+01 2.061209999999999987e+00 2.545910000000000117e+00 1.277704999999999913e+01 1.016365000000000052e+01 8.888700000000000490e-01 3.173000000000000265e-01 2.796400000000000219e+00 9.900050000000000239e+00 7.075689999999999813e+00 6.101989999999999803e+00 5.239860000000000184e+00 2.887480000000000047e+00 9.907049999999999912e+00 2.593379999999999797e+00 1.574330000000000007e+00 6.111349999999999838e+00 9.864000000000000545e-01 3.839999999999999858e+00 5.817900000000000293e-01 1.202704999999999913e+01 3.804990000000000094e+00 2.723419999999999952e+00 6.466689999999999827e+00 8.771480000000000388e+00 1.014985000000000070e+01 9.803449999999999775e+00 2.583699999999999886e-01 4.875659999999999883e+00 5.277070000000000149e+00 6.997230000000000061e+00 8.797549999999999315e+00 1.025169999999999915e+00 4.121950000000000003e+00 6.564530000000000420e+00 6.413649999999999629e+00 6.545230000000000103e+00 9.642950000000000799e+00 3.041630000000000056e+00 9.431449999999999889e+00 1.232934999999999981e+01 1.537309999999999954e+00 1.103224999999999945e+01 6.917919999999999625e+00 7.379220000000000113e+00 3.415099999999999802e+00 1.225944999999999929e+01 4.288299999999999890e-01 9.733349999999999724e+00 7.108999999999999764e-01 9.158450000000000202e+00 1.079124999999999979e+01 1.107365000000000066e+01 8.038550000000000750e+00 2.632280000000000175e+00 1.112764999999999915e+01 8.674659999999999371e+00 8.794249999999999901e+00 1.296790000000000109e+00 1.121005000000000074e+01 3.193900000000000183e+00 7.820099999999999829e-01 5.234440000000000204e+00 2.786100000000000243e-01 7.343130000000000379e+00 7.474350000000000271e+00 1.273375000000000057e+01 9.764049999999999230e+00 8.730969999999999231e+00 1.232124999999999915e+01 6.681199999999999584e+00 1.205845000000000056e+01 4.941840000000000011e+00 5.363039999999999807e+00 1.134205000000000041e+01 1.153070000000000039e+00 1.725549999999999917e+00 1.192704999999999949e+01 3.038100000000000023e+00 3.898590000000000000e+00 1.092684999999999995e+01 2.355220000000000091e+00 7.713589999999999947e+00 5.330400000000000027e+00 1.276019999999999932e+00 1.218704999999999927e+01 1.031174999999999997e+01 1.020274999999999999e+01 1.005504999999999960e+01 1.955869999999999997e+00 3.460300000000000153e+00 1.297925000000000040e+01 9.970349999999999824e+00 8.993149999999999977e+00 4.668090000000000295e+00 2.777999999999999914e-01 5.685570000000000235e+00 1.154725000000000001e+01 1.271105000000000018e+01 5.263320000000000221e+00 5.115280000000000271e+00 4.253140000000000143e+00 1.076065000000000005e+01 4.471870000000000012e+00 6.929529999999999745e+00 5.567440000000000389e+00 4.770710000000000228e+00 6.565830000000000055e+00 7.295239999999999725e+00 1.068854999999999933e+01 5.058270000000000266e+00 1.110115000000000052e+01 1.143174999999999919e+01 3.760520000000000085e+00 6.900319999999999787e+00 3.325999999999999790e-02 4.755630000000000024e+00 2.878449999999999953e+00 6.546829999999999927e+00 9.720150000000000290e+00 1.188899999999999957e-01 4.386510000000000353e+00 2.897660000000000124e+00 4.006899999999999906e-01 1.156344999999999956e+01 2.379000000000000004e+00 5.652269999999999683e+00 2.068459999999999965e+00 7.843300000000000161e+00 5.986900000000000333e+00 9.314799999999999747e-01 1.113204999999999956e+01 7.626260000000000261e+00 1.044435000000000002e+01 1.188664999999999949e+01 1.079025000000000034e+01 6.643550000000000288e+00 2.794919999999999849e+00 1.856279999999999930e+00 7.158240000000000158e+00 3.152779999999999916e+00 7.739379999999999704e+00 8.168350000000000222e+00 6.129139999999999588e+00 1.231584999999999930e+01 3.037630000000000052e+00 1.246625000000000050e+01 5.096309999999999896e+00 1.214514999999999922e+01 5.046429999999999971e+00 7.864709999999999646e+00 1.329085000000000072e+01 1.348104999999999976e+01 7.762450000000000294e+00 7.606139999999999901e+00 2.937679999999999847e+00 1.179935000000000045e+01 1.666840000000000099e+00 8.388479999999999492e+00 2.493100000000000038e-01 2.794789999999999885e+00 7.410300000000000331e+00 9.625949999999999562e+00 3.341219999999999857e+00 2.700169999999999959e+00 7.670000000000000429e-02 4.709800000000000431e+00 1.337999999999999953e-02 9.174549999999999983e+00 1.203425000000000011e+01 1.119705000000000084e+01 1.271305000000000085e+01 1.218074999999999974e+01 8.989549999999999486e+00 1.030335000000000001e+01 7.229980000000000295e+00 5.144969999999999821e+00 1.049654999999999916e+01 3.240399999999999947e-01 6.867740000000000400e+00 2.474839999999999929e+00 7.889800000000000146e-01 2.492700000000000138e+00 5.908529999999999838e+00 8.207390000000000185e+00 7.565780000000000172e+00 7.520229999999999748e+00 1.105995000000000061e+01 6.897799999999999487e-01 2.937530000000000197e+00 1.221315000000000062e+01 3.247030000000000083e+00 6.944639999999999702e+00 2.840349999999999930e+00 9.952149999999999608e+00 1.340985000000000049e+01 4.590099999999999736e-01 2.781429999999999847e+00 3.420310000000000183e+00 2.592379999999999907e+00 1.218169999999999975e+00 1.187725000000000009e+01 7.040060000000000429e+00 9.731550000000000367e+00 1.030475000000000030e+01 6.676759999999999806e+00 1.335004999999999953e+01 5.403799999999999715e-01 1.133665000000000056e+01 4.733100000000000307e+00 3.829699999999999771e-01 8.368410000000000792e+00 1.342844999999999978e+01 3.836230000000000029e+00 5.825000000000000178e-01 7.514179999999999637e+00 2.759999999999999953e-02 9.471149999999999736e+00 3.529459999999999820e+00 7.691550000000000331e+00 2.090399999999999814e+00 1.317495000000000083e+01 4.801949999999999719e+00 1.633999999999999897e-01 2.781400000000000095e+00 1.097334999999999994e+01 5.044859999999999900e+00 1.085635000000000083e+01 2.474270000000000191e+00 1.248845000000000027e+01 6.559650000000000425e+00 4.123120000000000118e+00 9.863149999999999196e+00 6.149799999999999711e-01 7.070219999999999949e+00 2.567590000000000039e+00 6.054909999999999570e+00 1.752680000000000016e+00 7.257629999999999804e+00 1.172654999999999959e+01 4.407000000000000028e+00 4.595320000000000071e+00 4.499400000000000066e-01 1.001774999999999949e+01 2.416389999999999816e+00 1.288385000000000069e+01 1.303725000000000023e+01 1.217634999999999934e+01 6.639929999999999666e+00 7.061510000000000176e+00 2.984620000000000051e+00 3.776190000000000158e+00 3.650720000000000187e+00 1.037984999999999935e+01 4.702480000000000437e+00 9.620649999999999480e+00 8.366070000000000562e+00 1.121654999999999980e+01 1.278994999999999926e+01 1.166985000000000028e+01 1.222274999999999956e+01 1.291109999999999980e+00 8.814849999999999852e+00 9.369249999999999190e+00 1.127185000000000059e+01 1.119099999999999956e-01 4.590090000000000003e+00 6.434900000000000064e-01 2.103599999999999914e-01 5.125910000000000188e+00 8.563899999999999846e-01 4.055000000000000271e-02 8.297670000000000101e+00 9.653349999999999653e+00 6.108550000000000146e+00 9.133649999999999380e+00 1.028610000000000024e+00 9.485849999999999227e+00 7.060469999999999580e+00 1.338305000000000078e+01 9.758250000000000313e+00 1.108535000000000004e+01 9.213449999999999918e+00 9.861250000000000071e+00 4.079150000000000276e+00 5.148869999999999614e+00 1.147845000000000049e+01 1.864559999999999995e+00 5.299100000000000144e+00 6.840819999999999901e+00 9.585250000000000270e+00 2.912570000000000103e+00 8.263040000000000163e+00 7.662950000000000372e+00 6.915400000000000436e-01 2.347789999999999822e+00 4.060880000000000045e+00 7.933300000000000018e+00 1.284854999999999947e+01 8.710029999999999717e+00 4.166750000000000398e+00 5.128000000000000114e+00 8.425250000000000128e+00 8.947549999999999670e+00 4.052290000000000170e+00 1.017885000000000062e+01 1.614610000000000101e+00 5.292950000000000266e+00 7.077899999999999636e+00 1.279044999999999987e+01 6.564919999999999867e+00 1.329299999999999926e+00 1.205555000000000021e+01 1.893739999999999979e+00 6.029959999999999987e+00 6.983819999999999695e+00 1.301815000000000033e+01 2.149399999999999977e+00 1.159145000000000003e+01 8.613709999999999312e+00 1.314935000000000009e+01 1.291464999999999996e+01 8.422650000000000858e+00 5.648869999999999614e+00 9.277549999999999741e+00 1.082954999999999934e+01 6.348639999999999617e+00 7.655949999999999811e+00 6.549649999999999750e+00 8.623499999999999499e-01 5.800980000000000025e+00 6.434540000000000148e+00 2.304780000000000051e+00 1.286514999999999986e+01 6.340410000000000323e+00 3.763189999999999813e+00 1.127110000000000056e+00 2.631709999999999994e+00 1.740809999999999969e+00 6.671689999999999898e+00 4.741850000000000342e+00 1.329095000000000049e+01 3.743840000000000057e+00 2.785299999999999887e+00 4.047010000000000218e+00 1.136875000000000036e+01 1.078775000000000084e+01 1.038574999999999982e+01 9.139450000000000074e+00 1.261945000000000050e+01 4.301149999999999807e+00 8.330560000000000187e+00 6.016820000000000057e+00 7.168319999999999581e+00 7.764689999999999870e+00 7.557890000000000441e+00 9.059350000000000236e+00 7.771429999999999616e+00 5.058639999999999581e+00 2.739279999999999937e+00 1.150384999999999991e+01 1.335805000000000042e+01 1.553949999999999942e+00 8.854449999999999932e+00 6.067109999999999559e+00 1.145994999999999919e+01 1.327694999999999936e+01 5.579499999999999460e-01 1.047874999999999979e+01 6.726110000000000255e+00 1.092934999999999945e+01 8.243859999999999744e+00 5.675939999999999763e+00 1.145045000000000002e+01 1.029814999999999969e+01 6.845919999999999561e+00 5.133499999999999730e+00 9.812450000000000117e+00 1.019255000000000067e+01 1.105985000000000085e+01 1.324085000000000001e+01