-7.789624480845194194e+04
-7.790004317686129070e+04
-7.789522891659510788e+04
-7.790079216938810714e+04
-7.790199335120727483e+04
-7.790641650067856244e+04
-7.790479766949717305e+04
-7.790029709804966114e+04
-7.789893390955422365e+04
-7.790470161484050914e+04
-7.789343000292127545e+04
-7.789468610175652429e+04
-7.790154614640765067e+04
-7.790217629740385746e+04
-7.790910961336488253e+04
-7.790127475678249903e+04
-7.790614790967364388e+04
-7.790244012681937602e+04
-7.790425943335966440e+04
-7.789873639368990553e+04
-7.790710724012028368e+04
-7.789990421646283357e+04
-7.789780374125482922e+04
-7.789846438027235854e+04
-7.789572290695454285e+04
-7.789218027036527928e+04
-7.789614407621686405e+04
-7.790041569342557341e+04
-7.789806462462517084e+04
-7.790598076168545231e+04
-7.789647873253939906e+04
-7.790236374392744619e+04
-7.789339892035243975e+04
-7.789440670395789493e+04
-7.790186650071004988e+04
-7.789593835608461814e+04
