1.334052980951819345e+00 4.340223041065068843e-01 4.562176110913133686e-01 -2.627016644666006151e+00 -1.125860456360418649e+00 7.258620774202976245e-01 -3.604260126930395880e-01 7.011866841211077395e-01 9.356018920220611212e-01 2.641597886119593230e-01 -7.288563844094441135e-01 -5.405410600010169819e-01 -1.430533635054275887e+00 -2.875491160035661409e-01 -3.322672885430034695e-01 -3.020599092247105433e-01 8.710384009814853279e-02 -1.647051392370094014e+00 -1.680749815849354789e+00 -1.028631611176181460e-01 4.086203169938765756e-01 2.210557033485363476e+00 -3.408912834794581848e-01 1.172370173730731269e+00 -7.443256849683471676e-01 7.606532198334301498e-01 3.659148041754626490e+00 -2.097854773976825182e+00 1.073890743865469899e+00 2.621234747398967779e-01 -2.858758419278864871e+00 4.936251082976415017e-01 -1.434529129697186711e+00 -9.779721329605293167e-01 -1.280980265109503413e-01 4.166622141264991752e-01 4.740672391536956964e-01 5.580327904737640843e-01 2.213943176628679677e+00 -1.329820944798517923e-01 1.140083800224370447e-01 1.346723378377986113e-01 -1.852521118488623664e-01 1.233953755961053833e+00 3.553429413230048128e-01 -9.347498283639784633e-01 -2.121067723676988426e-01 3.071450374774444270e-01 -6.170838358808776736e-01 -1.130139800815798568e+00 9.257566229830438420e-02 -1.470154338044785236e+00 -1.121129626152596592e-01 2.387907630445813556e+00 8.467363318921736215e-02 -4.802723400360638939e-01 -1.570791437861353002e+00 -5.134668272540566791e-01 1.593859891551907770e+00 6.767246924019448828e-01 -6.948735968970393140e-01 -1.041610541007206292e-01 -1.167180144460345570e+00 -1.640929595237037436e-02 2.365705124371560331e+00 -1.279079705495578478e+00 -7.447514596870512538e-01 1.567046368687052271e-01 -3.541880016874864867e-01 -8.903607570563895068e-01 3.557044384573633811e-01 -1.337565108160452543e-01 5.797323887280988325e-03 7.835427247291671948e-01 1.881512365911101270e+00 2.478516398663148657e+00 8.002924347682308648e-01 6.228405363348523682e-01 1.059610835727293976e+00 -6.029232269392469368e-01 -1.185382013684940672e+00 1.786996549006915069e+00 -2.933747220279591672e-01 -2.167978018952941177e+00 8.058681295446890047e-01 6.927308393453007751e-01 -3.905876263712785845e-01 6.188460701332914038e-01 -4.097258914446175737e-01 1.318003639471783339e+00 1.425220707042621937e+00 -3.743644783031725431e-01 -1.294493984442282031e-01 4.990614492712386330e-01 8.862675604852739975e-01 -9.354285996546659598e-01 6.707011114177680033e-01 1.347889116647674523e+00 2.917389860615371977e-01 1.175796426086678642e-01 -4.317844157299371988e-01 -1.914695540274249097e-01 -7.977079616568707454e-01 -4.787728725484542425e-01 -1.015292212652147974e+00 1.013057409599626757e+00 -7.300169804723848355e-01 4.037640169414123403e-01 -1.012707739540787744e+00 -4.879409129588083704e-01 9.760571751677111774e-01 -8.116952782311062098e-01 -1.461457837993188846e+00 5.125957374310075726e-02 -1.746139145293600092e-02 7.523943215760575676e-01 -3.982412868944549267e-01 3.600727430894772318e-01 2.692747416638294755e-01 2.011122201205856053e-01 8.678116662473458476e-01 2.270325416733771917e-01 8.589238761047376380e-01 -1.062304837842378724e+00 -1.201388674848971272e+00 -6.312490728085811131e-01 -1.392201054854048936e-01 2.256914541535946350e-03 2.090543070202366405e+00 -1.258105672613334614e+00 -1.800589972544281991e-01 -2.406377922862635577e-01 7.344958425495727861e-01 4.591862070467216950e-01 7.892983967417923630e-01 -2.356565366098317960e-01 -1.059344469417766721e+00 9.882205510085613209e-01 1.738198549633906076e+00 -1.300380268506296844e+00 1.646550027212199951e-01 3.785270946653810920e-01 1.279475141194471366e+00 -8.878796423006567462e-01 5.406043091440129178e-01 -2.931196685732765927e-01 3.367939731429444583e-01 1.616896463560627106e+00 5.159906223257947344e-01 7.522847925723329388e-01 1.438532337650218595e+00 -3.047940205524268462e-02 -6.963746070466731997e-01 7.826346110175352866e-01 1.347463341928970548e+00 3.993849136751284057e-01 3.039090467711592081e-01 -2.003429459911397537e+00 3.379972495218904697e-03 8.578620104113515721e-01 -2.243334487736122984e+00 2.291062908105625073e+00 -1.092478278596137553e+00 1.247374915572374787e+00 5.098163746839122767e-01 -2.146596209075610329e+00 -4.266077561970953863e-02 -2.959355409882801768e-01 8.213338305588686883e-02 -2.701406892801307830e-02 -4.997186232935860173e-01 -8.013388738413740331e-01 1.813713398384915187e+00 2.204758681156733235e+00 -6.460843392755012404e-01 5.012314605187395689e-01 1.205772920322002895e+00 -9.811983534739942003e-01 -1.898561352382877043e+00 -1.092405259260320893e-01 -4.378177669069344136e-02 1.563777982078257134e+00 -1.521303868563486761e+00 2.736949825840944150e-01 7.511272818334407964e-02 8.560797215526221027e-02 8.365285372774482475e-01 9.971443365984029583e-01 -7.077224288973488209e-01 -2.653383823985166479e-01 1.228693278458225846e+00 -1.732354945885896669e+00 -1.515603732383735691e-01 -1.828450962923630074e+00 6.202324090724531391e-02 2.390801150182706447e+00 -1.038185317092608306e+00 -1.852240868220877523e+00 3.141939744870992507e-02 3.294365037284317510e-01 -4.391259443035321341e-01 -1.984308164120325735e+00 -5.160101627114356271e-01 -3.579747227364431239e-02 -2.253123192500916527e+00 -7.561049379651492430e-02 1.004427244015074772e-01 -1.268578805096238105e+00 -1.394830265164113570e+00 -4.976010625549109889e-01 5.689990605837652593e-01 -9.453330040712809579e-02 -1.057069557152614081e+00 2.980388578142643574e+00 5.981656572563374130e-01 1.599001069858190904e+00 5.465080767109697923e-01 -6.527003024770053168e-03 2.233461965001343419e+00 1.384590588867552485e-01 1.721465808877109760e+00 -4.820392022745503824e-01 6.443185054783641397e-02 2.392298560787617101e-01 -2.001031134684301716e+00 -3.478692066139280836e+00 1.668388979269395778e+00 5.442609323622544792e-01 1.968110727085957468e+00 4.104555705821066880e-01 -8.370175611391479642e-02 -5.590884855190529912e-01 -1.768456322578326051e-02 3.705551315445262950e-01 -2.432607291040959296e+00 -2.420081903845076043e-01 -2.541002952398355497e+00 -1.947465281214887156e+00 1.106459938742950344e+00 -5.544306746470473168e-01 -8.952119149021061650e-01 -1.024570810507575924e+00 -1.960104311179893699e+00 -1.711106833384004045e+00 1.584864115067599333e-01 -5.727050489867840932e-01 9.730135029937873048e-01 1.607207003386063038e-01 5.088213576782452813e-02 1.281857525580649471e+00 -6.845768421055798969e-01 -1.407098027801940709e-01 2.024219401792075879e-01 -1.057572979193207363e+00 3.227192390539992961e-01 5.232066810547475466e-01 -8.803576222702198528e-01 -2.570121212327499682e-01 1.383328691331683569e+00 1.230481223744377628e+00 1.427222568129475455e+00 -1.217549602215431070e+00 4.046705879910199588e-01 4.307626592491825730e-03 1.828335263271808397e+00 6.109790080300883108e-01 1.869043028768767323e-01 -4.215838202046582883e-01 -7.061360581157042349e-01 -1.425754468103026307e+00 -8.912734987540943399e-01 -1.105135820505434907e+00 1.738837211711962150e-01 1.113777813165506281e+00 3.914674579457985137e-01 1.159471976545644267e+00 -7.211163348129074890e-01 -1.090321122865505421e+00 1.456893615283990195e+00 1.626304130805420911e+00 4.040540374019788855e-02 5.120511777364332717e-01 4.373755371266380698e-01 1.430757835268472888e+00 2.633059251815148993e+00 1.180389959374338993e+00 -7.715351577527703730e-01 -7.575951494806131281e-01 -3.621090569615397631e-02 1.748710248667416714e-02 -1.972582904294373884e+00 4.966862639745072139e-01 3.522622452604980969e-01 -7.705139154926905487e-01 5.849620129904412602e-01 -1.511423118297910428e-01 -1.992769665323554928e-01 4.563651924249704228e-01 9.456127401183523906e-01 3.332376229562817316e-01 -1.521392828740220748e+00 -2.444836487128179581e+00 7.109512205141874097e-02 -1.834996477892691588e-02 -1.332528316651146572e+00 1.841942570767393539e+00 -7.351345046276286377e-01 -1.005651089221011457e-01 1.328955511402891476e+00 -8.480301111098780265e-01 9.248541656988342741e-01 2.729518308649265368e+00 3.554498992233554727e-02 1.974998198803736837e-01 5.550287132917970379e-01 -5.211986493197969667e-02 1.133136678908318838e-02 -2.462059280188025223e+00 -1.730486267953806889e-01 -2.883919236895031157e-01 6.903823935236569342e-02 -3.046191855230073048e-02 -3.759107398721856647e-02 8.465306436222683750e-01 -6.673725609900253986e-01 -1.033869462969320141e+00 -9.023431272197229847e-01 -4.393902537303604472e-01 5.203620122819572202e-01 5.221561282162061612e-01 1.760341920330561749e-01 -2.033003319358381855e+00 4.417875505161068111e-02 1.555854355700830194e+00 -6.246984156327720639e-01 -2.277611923695167240e-01 6.468052766615193239e-01 3.126096605881535928e-01 -1.469944536009481828e+00 6.619105089826901045e-01 6.875145848205022059e-01 2.052543704999385543e+00 2.142510725814616157e-01 9.086793543741559717e-03 -9.929626940712279470e-01 6.859025030051194571e-01 -8.570644541447938192e-01 1.316538624769383048e-01 4.265311373165556752e-01 1.901181820941470479e-01 2.860794733150927582e-01 1.339210614319694959e-01 2.972344624127321588e-01 -2.550863648057615785e-01 -9.975927370267961836e-01 -4.405925016679569928e-01 5.338633903185413532e-01 -2.021961973029865189e-01 2.589682166795494456e-01 -7.931905330290754674e-02 9.394647177308826924e-01 -1.612405774407919268e-01 8.161211755787936006e-01 7.694479360339062657e-01 7.808440946280097161e-02 -8.370638409998767404e-01 4.862455273941139189e-01 7.328673056725974744e-02 5.471801631328854221e-01 2.475086032541802705e+00 -2.716010759964584409e-01 5.505863608825173339e-01 -1.217875103902556155e+00 -6.908755311507549512e-01 -8.749783597915213873e-01 -9.067777663188815174e-01 -5.477098104278915747e-01 2.289513046991888068e+00 1.209150835934522883e+00 -3.392740594573276369e-01 6.002276821621380654e-01 -1.428795054952901378e+00 2.009872644966181066e-01 -1.216003340646417963e-01 -6.227644316749874065e-01 7.081332912164847171e-01 6.373508153353220351e-02 -6.323469339492007180e-01 -5.787265730882619197e-01 6.581366434506025209e-01 6.303676985720368942e-02 7.874960532767470989e-01 6.379858778686546827e-01 2.030420903129721011e-01 1.462870402186763896e-01 -2.203250471917652387e-01 -1.023530027861855318e+00 3.120553307007588595e-01 -3.837952854783306389e-01 -2.579231145801605507e+00 4.914854360699515423e-01 2.992904195145706048e+00 -7.652621797413333704e-01 6.233881813534752903e-01 9.026665720241491275e-01 1.029560293714804065e+00 6.494293447648362694e-01 -8.470206959253177015e-01 3.866713217122815793e-01 1.546930055890313738e-01 -2.861833458913949357e-01 -1.364616200977048610e+00 1.615856195135580986e-01 -1.431595500747662175e+00 -2.963525739555131766e-01 -7.544182941519256280e-02 -1.124593930838476696e+00 6.199074216060027620e-01 1.456314602804206659e+00 4.965587372471658156e-01 4.994502001013597092e-01 5.406536743287901903e-01 -3.125366412523372661e-01 -6.699153822267297498e-01 -8.047281023087387020e-01 -7.178623463830056117e-01 1.824490949507278359e-01 -1.457807385423044666e+00 -8.512573600646923255e-01 1.982404519182352054e+00 7.616595496939418952e-01 8.158640652414118621e-01 3.356719436306110360e-01 6.883615062718373423e-02 2.855256576483726771e-01 3.084665846115859922e-01 6.902420112794466212e-01 -1.398461691569291787e+00 -3.576250526776041105e-02 5.474480721044370224e-01 3.570223860467815480e-01 1.380114812114413114e+00 -5.529085814497481932e-01 1.575912561561320313e+00 -7.803489001182125628e-01 -9.363881354337740825e-01 -3.840841232313451314e+00 -4.318589777277778707e-01 2.058749320102428726e-01 5.764655447813278322e-01 -2.048104952134829349e-01 -1.654412461329330397e-01 7.135259234327270272e-01 -1.343856083895506259e+00 -3.992075075423350827e-01 6.355495003116262698e-01 9.125627489099679135e-01 -1.105005722674719859e+00 -2.259063983956456634e-01 1.359502276366528095e+00 -6.763426264405957289e-01 7.521516094175692002e-01 1.423697071183298579e+00 2.546389928187175467e-01 -7.655059203411711533e-01 -3.285253046927512355e-02 5.664721801879786245e-01 6.234133781665386342e-01 5.921739579539959664e-01 -3.611716326714463077e-01 3.350790471926090031e-01 -1.324327525330021960e+00 -1.036461135170126946e+00 -1.251365782229212575e+00 9.063298801111626668e-01 1.274225976546487837e+00 -1.063829502143051942e+00 4.118743054237784529e-01 -2.650489275806924727e+00 5.447792668024157292e-01 3.633925517657488613e-01 -2.532680804997986534e-01 7.263300182343321865e-01 3.152008185682856345e-01 -1.644031374347209251e+00 -3.344360656608850402e+00 -7.279081614851806714e-01 -4.450106857055229348e-01 2.061099308586096801e-01 -5.646379550410980386e-01 8.503430757049631472e-01 -1.356411295890526114e+00 1.941501864049658133e-01 1.322285040809862311e+00 -1.030657640634748684e-01 -5.134236327173765657e-01 9.567888122636569737e-01 3.522760263745817522e+00 3.704440598787774319e-01 4.748308568557190745e-01 3.019879183302436876e-01 -4.879841074954885394e-01 1.130694644923867953e+00 -1.036714131742110467e+00 8.726365988386495243e-01 9.197628667980032313e-01 4.546569513434068344e-01 6.136514128768330023e-01 8.798984232076563494e-02 -3.211935463119767187e-01 -8.384573790284852168e-02 -3.996723630323210652e-01 -3.860701977434833343e-01 -7.954675021769271881e-01 2.354930144352570809e-01 -6.168159269093259622e-01 6.708399509999540822e-01 9.564026325369097137e-01 9.327448819530764768e-02 5.179431182278707579e-01 -7.990907010513090825e-01 1.170191934952433899e+00 1.206577161457332625e+00 -3.257685676553453979e-01 4.987976540650851387e-01 -1.176514278148648396e+00 -7.163253407861381872e-01 3.551979310927215194e-01 1.751325575019262892e+00 2.645845348893137161e-01 -7.685321090121528531e-01 -1.422699997294932572e+00 2.299450875752363233e-01 8.541591073323814287e-01 4.258086572685133020e-01 -1.443376810627163165e+00 5.272505124410857835e-01 2.143554593784385565e-01 -7.201115476144199778e-01 8.431409009342289984e-01 1.675250225732761722e+00 -6.400607582913243887e-02 5.762793968970635339e-01 9.502021596406143855e-01 6.099783345969990167e-01 -1.089656235533036588e+00 6.659836509474899024e-01 -1.995926980266601591e-01 -6.029643645932281082e-01 -3.921004635964320806e-01 -9.215749804558689418e-01 -1.525998703324075167e+00 -1.602617069643126113e+00 -9.717999422013459676e-02 -1.961771928828150990e+00 1.186674250240620676e+00 -5.036956059922050866e-01 5.740759613057029587e-02 -1.579774358828792691e+00 2.892753548087463877e-01 -6.620853440121096112e-01 3.540615034014947260e-01 9.600870236715883799e-01 3.524571348962333289e-02 -7.501816300125512260e-01 9.466591791914955589e-01 2.775248981697312281e-02 3.285741556568537169e-01 -1.569951201278789954e+00 6.629332939047942741e-01 -1.560505481704063668e-02 3.253073117100827583e-01 -1.800768921339099604e+00 -1.651666522926094338e-01 4.196297816405579473e-02 1.115415091793952707e+00 3.653363059163539095e-01 6.193016696511316477e-02 -3.429389102063654104e-02 8.196430729802469672e-01 -1.837572723473255565e-01 -5.972601146480792655e-01 1.142533547518942649e+00 1.046992888809953337e+00 8.573364768817435255e-01 3.476486573665220625e-01 1.389793473654807432e+00 -1.392847430242226459e+00 -4.118619641275841348e-01 -1.381744891653412743e+00 -9.084309857882452155e-01 -4.303389414131775226e-01 -4.782452821361470874e-01 -9.760515187402887261e-01 4.429949406604509754e-01 1.400978801772257698e-01 6.348969542753517548e-01 -4.204422503066838901e-02 8.415205915880499266e-01 -9.334658193390944492e-01 4.003675893846009859e-01 1.378116036351608509e+00 -3.937865931889807936e-01 8.828243388470592701e-02 -6.031140028095841599e-01 2.127644606107210179e-01 -1.824437984777777633e+00 -2.523581670158050905e+00 1.668331900774497001e+00 1.535752441082984809e+00 6.747963648715825380e-02 1.835439221893663042e+00 5.200730202627402710e-01 1.798805626802853386e+00 -1.044742144916514272e-02 -6.845300480241762742e-01 -1.029621485975100725e+00 7.854746518042527992e-01 -8.953044746235636064e-02 -8.898470506023010707e-01 3.969382517046048386e-01 1.624114579172278999e-02 2.784042155235763594e-01 1.098083798171731740e+00 3.627436052741975780e-01 -1.126650813537529938e+00 3.507674057589613148e-01 1.976188105445138676e+00 1.990446416314974876e+00 6.007809836081833277e-01 8.662515207201141321e-01 1.173760112214616291e-01 -3.607515143801647284e-01 4.394936120859879169e-01 1.100792198465709720e-01 -7.409323427355845038e-01 4.527970151627881690e-02 -1.201646299407027746e-01 -7.468283969924199850e-01 -1.560032398683281474e-01 1.034556461790803628e+00 -1.448796182318493053e-01 1.594330403469316204e+00 -2.973246567190856116e+00 9.492811904121134514e-01 1.030829390340119556e+00 6.087236361505766746e-01 -1.003386461369354166e+00 -2.758855626585858811e-01 7.141830974550744671e-01 -2.144452423082522152e+00 -6.809155909012654107e-02 -4.046726448737190673e-01 -7.300514332575939180e-01 -1.465918188126085431e+00 -1.267379128262015320e-01 -3.737448423900827654e-01 -7.128857186926467193e-01 -6.591589141520318162e-02 -3.145184477328747952e-01 4.280717424581463315e-01 3.790896520835720929e-01 -2.224795803969557895e+00 8.431259885346609195e-01 -1.387764358872191517e+00 1.488703306224845591e+00 -1.581438891153001292e+00 2.471925632274707685e-01 -2.115380443014106771e+00 -1.296398143600930419e+00 -8.453294241260213004e-01 -3.621177987130106968e-01 -4.843423966768151678e-01 8.931108092250235053e-01 -5.354261069491468295e-01 2.169136558133182735e+00 -4.295753237111542000e-01 -2.420678399827801419e-01 2.373411235403562747e-01 1.482817022160830278e-01 7.074118396097918149e-01 -9.982082591744879663e-01 1.676755349647794102e-01 -1.141861975317701727e+00 -1.961484993691632983e+00 -1.018694810857056376e+00 1.489476179899014707e-01 2.292020387002033921e-01 4.942617134929984113e-01 -8.722108241199456879e-02 1.210933124793252408e-01 5.539056553381140890e-01 -6.488729579947424275e-01 1.211835582077461781e+00 -1.091078055698756710e+00 -1.829593561262954138e+00 9.016653843703851257e-01 -4.594489738115257182e-01 -4.501739755008207777e-01 2.351762544996029158e-01 8.343348718789080909e-01 6.272926589369526296e-02 -5.234241964001724590e-01 -7.106411454473051670e-01 2.868436052377909551e-01 1.558590523911245418e+00 -1.272841180269350447e+00 -9.061205922965338555e-01 2.425080128803774882e-01 -5.625008539167819510e-01 1.403504139506020154e+00 1.189971947427877375e+00 1.360698867876702023e+00 7.605858569250362189e-01 1.879003483238931571e-01 -4.568218203841601932e-01 -2.003382151609319095e+00 -2.387238629347946950e-01 -5.806240473781383304e-01 -1.347720966487026828e-01 -4.134277660822382461e-01 1.390113318914510065e+00 5.597477164240994840e-01 -1.243132080784903337e+00 -1.466233405399715306e-01 9.038184263356189296e-01 1.541715858248214055e-01 2.450518625584313381e-01 -1.759685774749563558e+00 -2.296422115978007106e-01 -8.337219208345905130e-01 -5.312341800084767751e-01 -1.188343410550902313e+00 3.629045563453985324e-01 2.155921601012442124e-01 -1.730578827675263998e-01 -2.478636212080368717e-01 -1.677183181249196853e+00 -8.691553248705023993e-01 3.827704436735274718e-01 -1.506810558845284309e-01 1.462561869781905666e-01 1.527425665696543200e-01 -4.077281441231623282e-01 -2.606264240894585082e+00 -1.194894581947386104e-02 1.310685765049227403e+00 -9.478542280396453634e-01 1.132520642539952105e+00 -9.538659819483024105e-01 8.978287839159765360e-01 5.546075665591659182e-02 4.542928831056745054e-01 -8.150911915672427732e-02 -3.365348059228637778e-01 2.488519533449317922e-01 -7.333573579756468286e-01 1.346571169058256245e+00 -7.523866082659360632e-01 3.107430395387629773e-01 7.531090883139783809e-01 1.155270793632828363e+00 -1.857359420817471074e+00 5.545669431258596349e-01 3.813871900584143715e-01 2.828748500699680979e-01 1.132041903091747681e+00 1.555764881303421276e+00 1.765880076997762005e-01 -2.607829014407889723e-01 -5.364962001733292185e-01 3.041435313988513078e-01 1.649987078202317603e+00 8.670778733444586273e-01 1.026669859301959642e+00 2.449855280913868782e-01 1.145683663372542238e+00 -8.568916759980732545e-01 -4.590705073948999626e-01 -9.413148837186809947e-01 -5.529774870201664000e-02 -4.310434237376032374e-01 -7.876410635070303368e-01 -3.556684430101298977e-01 -7.121791794855220070e-01 2.400870619435920283e-01 -4.530294429077811880e-01 5.423475172314602410e-01 1.101824753580634253e+00 1.049439550780476793e+00 4.739623381360438814e-02 8.656802215504522113e-02 -5.095484657123605654e-01 -7.039259376555717651e-01 1.982109870735712653e-01