8.951859999999999928e+00 6.350730000000000430e+00 4.603110000000000257e-01 1.021790000000000020e+01 1.482259999999999955e+01 1.566070000000000029e+01 8.770899999999999253e+00 8.509940000000000282e+00 5.590980000000000061e+00 1.061539999999999928e+01 6.505449999999999733e+00 6.089159999999999684e+00 5.672380000000000422e+00 1.422659999999999947e+01 4.407239999999999824e+00 1.020159999999999956e+00 5.088650000000000340e+00 1.362689999999999912e+01 1.418319999999999936e+01 4.855680000000000440e+00 2.712790000000000035e+00 7.000140000000000029e+00 3.157220000000000137e+00 7.227249999999999730e+00 5.813900000000000290e+00 7.273430000000000284e+00 3.370779999999999887e+00 8.990999999999999659e+00 1.435100000000000087e+01 1.346630000000000038e+01 1.526239999999999952e+01 6.543219999999999814e+00 5.232389999999999652e+00 9.596419999999999950e-01 1.068950000000000067e+01 1.204920000000000080e+01 5.830420000000000158e+00 8.510029999999999539e-01 1.406709999999999994e+01 2.870919999999999916e+00 6.325870000000000104e+00 1.201239999999999952e+01 1.523329999999999984e+01 6.932450000000000223e+00 1.326849999999999952e+01 4.845379999999999576e+00 7.682690000000000019e+00 1.303739999999999988e+01 1.496969999999999956e+01 8.918770000000000309e+00 5.052399999999999558e+00 9.650489999999999569e+00 1.289099999999999913e+00 1.565939999999999976e+01 8.410270000000000579e+00 1.057699999999999996e+01 1.582179999999999964e+01 1.379579999999999984e+01 1.390320000000000000e+01 5.385030000000000427e+00 8.872490000000000876e+00 9.187810000000000699e+00 1.388269999999999982e+01 4.140349999999999753e+00 8.576570000000000249e+00 1.606049999999999978e+00 1.416590000000000060e+01 1.397010000000000041e+01 1.008230000000000004e+01 2.158450000000000202e+00 9.260749999999999815e+00 8.003069999999999240e+00 9.548310000000000741e+00 1.335479999999999912e+01 1.139499999999999957e+01 6.683419999999999916e+00 4.915820000000000078e+00 2.285070000000000157e+00 1.225409999999999933e+01 1.322910000000000075e+01 1.171010000000000062e+01 6.263969999999999594e+00 8.411149999999999238e+00 5.419550000000000090e+00 9.801220000000000709e+00 5.842489999999999739e+00 8.381040000000000489e+00 6.069569999999999688e+00 7.506220000000000114e-01 7.520900000000000141e+00 7.466459999999999653e+00 4.878129999999999633e+00 9.061349999999999127e+00 6.008359999999999701e+00 3.487019999999999786e+00 1.336430000000000007e+01 2.449449999999999961e-01 6.513980000000000325e-01 2.632280000000000175e+00 1.080160000000000053e+01 8.974429999999999907e+00 1.223980000000000068e+01 1.271400000000000041e+01 7.553689999999999571e+00 1.369919999999999938e+01 1.308900000000000041e+01 1.269410000000000061e+01 1.400159999999999982e+01 1.130499999999999972e+01 1.908279999999999976e+00 9.625120000000000786e+00 1.451670000000000016e+00 4.642199999999999882e+00 8.186930000000000263e+00 5.647540000000000227e+00 4.806180000000000341e+00 1.093420000000000059e+01 6.299580000000000179e-01 2.728600000000000136e+00 1.423080000000000034e+01 1.187170000000000059e+01 1.017319999999999958e+01 8.018660000000000565e+00 1.202620000000000022e+00 1.409389999999999965e+01 1.491539999999999999e+01 1.587439999999999962e+01 1.549530000000000030e+01 1.160229999999999961e+01 6.401159999999999961e+00 2.507589999999999986e+00 2.772419999999999884e+00 7.599820000000000242e+00 7.247110000000000163e+00 1.316890000000000072e+01 1.062959999999999905e+00 8.104660000000000863e+00 1.475900000000000034e+01 1.571499999999999986e+01 6.022560000000000358e+00 9.297209999999999752e+00 1.332729999999999926e+01 1.008660000000000068e+01 3.185610000000000053e+00 6.562739999999999796e+00 1.301399999999999935e+01 2.588070000000000093e+00 6.016969999999999708e+00 6.249919999999999920e-01 4.821439999999999948e+00 3.371140000000000247e-01 1.325269999999999948e+00 8.723150000000000404e+00 1.431639999999999979e+01 4.595100000000000406e+00 1.075939999999999941e+01 1.064530000000000065e+01 2.818090000000000206e+00 1.352039999999999909e+00 1.307230000000000025e+01 3.528389999999999915e+00 5.878700000000000037e-01 7.998520000000000074e+00 1.325629999999999953e+01 9.442780000000000840e+00 3.558300000000000018e+00 3.955000000000000071e+00 9.838779999999999859e+00 1.947270000000000056e+00 1.575399999999999956e+01 7.561980000000000146e+00 1.169330000000000069e+01 2.102110000000000090e-01 8.195220000000000837e+00 1.055790000000000006e+01 8.480320000000000746e+00 9.526920000000000499e+00 2.282599999999999962e+00 1.084040000000000004e-01 1.193679999999999986e+01 1.798820000000000086e+00 7.340910000000000046e+00 9.519280000000000186e+00 1.892099999999999893e+00 1.393500000000000050e+01 5.622259999999999813e+00 1.566269999999999918e+01 1.480090000000000039e+01 4.469969999999999999e+00 1.335139999999999993e+01 1.272850000000000037e+01 2.804570000000000007e+00 1.444480000000000075e+01 9.703889999999999461e+00 7.622799999999999798e+00 4.464260000000000339e+00 1.486860000000000070e+01 1.308619999999999983e+01 2.318719999999999892e+00 1.978960000000000052e+00 1.006390000000000029e+01 9.591250000000000497e+00 5.236419999999999852e+00 1.242280000000000051e+01 9.160970000000000724e+00 1.087499999999999911e+00 1.310529999999999973e+01 1.510110000000000063e+01 1.740350000000000064e+00 1.263059999999999938e+01 9.791460000000000719e+00 1.051219999999999999e+01 4.490280000000000271e+00 7.990770000000000373e-01 4.394350000000000200e+00 5.778019999999999712e+00 5.125449999999999839e+00 1.243800000000000061e+01 1.254460000000000086e+01 2.955519999999999925e+00 9.457269999999999399e+00 1.345350000000000001e+01 7.046470000000000233e-01 3.069090000000000096e+00 3.648950000000000138e+00 3.774779999999999802e-01 1.007109999999999950e+01 9.445690000000000808e+00 4.596860000000000390e+00 1.089489999999999981e+01 2.686890000000000112e-01 9.894769999999999399e+00 4.037589999999999790e+00 3.513939999999999841e+00 1.221780000000000044e+01 4.728889999999999816e+00 1.232160000000000011e+01 6.743559999999999555e-01 4.952699999999999880e-01 1.591830000000000034e+01 1.333060000000000045e+01 2.988239999999999785e+00 1.410190000000000055e+01 4.093939999999999912e+00 1.253279999999999994e+01 5.619530000000000136e+00 5.448299999999999699e+00 1.431859999999999999e+01 1.032450000000000090e+00 1.088279999999999959e+01 1.180700000000000038e+01 6.590040000000000120e+00 1.406750000000000078e+01 2.314470000000000027e+00 9.627649999999999153e+00 9.482150000000000745e+00 1.406000000000000050e+01 7.107820000000000249e+00 6.583169999999999966e+00 1.146610000000000085e+01 1.449029999999999951e+01 3.419280000000000097e+00 1.313690000000000069e+01 1.212970000000000020e-01 4.166000000000000369e+00 9.975429999999999353e+00 6.265810000000000102e+00 4.121879999999999988e+00 1.544100000000000072e+01 8.808840000000000003e+00 1.287899999999999956e+01 5.760069999999999801e+00 4.918009999999999771e+00 1.568410000000000082e+01 1.238909999999999911e+01 1.350500000000000078e+01 1.206869999999999976e+01 1.342009999999999970e+01 5.421000000000000263e-01 6.949989999999999668e+00 4.916380000000000194e+00 1.549499999999999922e+01 9.831690000000000040e+00 6.510819999999999830e+00 2.628480000000000150e+00 1.162310000000000088e+01 8.266830000000000567e+00 2.432360000000000078e+00 8.945019999999999527e+00 2.979600000000000026e+00 5.550010000000000332e+00 1.138579999999999970e+01 7.367029999999999745e+00 3.195200000000000123e-02 5.499509999999999899e+00 1.335479999999999912e+01 1.017190000000000083e+01 1.780030000000000001e+00 7.415250000000000341e+00 1.090840000000000032e+00 1.349319999999999986e+01 1.429369999999999941e+01 7.854059999999999597e+00 1.018360000000000021e+01 7.252640000000000198e-01 6.618970000000000020e+00 5.913070000000000270e+00 7.597310000000000452e-01 7.445690000000000364e-01 8.747429999999999595e+00 1.135699999999999932e+01 2.372829999999999995e+00 6.489519999999999733e-01 5.190509999999999735e+00 2.153579999999999828e+00 9.855130000000000834e+00 3.005500000000000060e+00 1.144480000000000075e+01 9.013709999999999667e+00 4.009290000000000020e+00 1.188039999999999985e+01 8.636129999999999640e+00 1.336880000000000024e+01 1.255390000000000050e+01 3.313899999999999846e+00 1.570090000000000074e+01 1.288710000000000022e+01 6.140900000000000247e+00 4.210420000000000051e+00 1.458699999999999974e+01 1.495030000000000037e+01 5.704540000000000166e-01 1.191929999999999978e+01 1.543329999999999913e+01 1.480450000000000088e+01 1.050000000000000000e+01 5.474920000000000009e+00 1.561630000000000074e+01 1.381059999999999954e+00 1.006209999999999916e+01 3.453180000000000138e+00 4.792430000000000412e+00 3.037659999999999805e-01 2.479429999999999801e+00 1.286739999999999995e+01 1.326079999999999970e+01 4.953870000000000218e+00 3.734750000000000014e+00 5.616069999999999673e+00 4.147800000000000153e+00 1.219289999999999985e+01 6.647499999999999520e-01 8.179180000000000339e-01 1.276429999999999954e+00 2.765299999999999869e+00 8.162900000000000489e+00 1.461750000000000105e+00 8.586700000000000443e-01 6.513980000000000325e-01 7.607590000000000074e+00 9.668779999999999930e+00 1.112800000000000011e+01 3.247980000000000089e+00 1.091760000000000019e+01 5.259850000000000136e+00 1.218200000000000038e+01 8.016230000000000189e+00 5.846700000000000230e+00 1.536790000000000056e+01 9.621280000000000499e+00 2.266189999999999927e+00 6.496650000000000480e-01 9.637180000000000746e+00 1.540659999999999918e+01 6.578920000000000101e+00 6.358489999999999753e+00 1.530809999999999960e+01 4.068459999999999965e+00 3.495690000000000186e+00 1.170030000000000037e+01 5.934380000000000210e-01 6.953969999999999985e+00 3.691949999999999843e+00 3.134409999999999918e+00 1.589559999999999995e+01 5.544529999999999959e+00 1.307210000000000072e+01 1.084470000000000045e+00 1.527420000000000044e+01 1.236880000000000024e+01 1.239429999999999943e+01 1.277769999999999939e+01 1.530330000000000013e+01 1.399160000000000004e+01 6.631840000000000401e+00 5.214529999999999887e+00 2.157770000000000188e+00 1.026529999999999987e+01 1.274179999999999957e+01 1.583129999999999926e+00 4.212049999999999628e+00 6.878009999999999735e+00 4.359799999999999787e-01 7.214789999999999814e+00 9.697649999999999437e+00 8.954100000000000392e+00 1.275280000000000058e+01 1.019159999999999933e+01 1.451479999999999926e+01 1.512579999999999991e+01 5.231440000000000090e+00 8.592950000000000088e+00 6.290250000000000341e+00 1.280219999999999914e+01 1.028359999999999985e+01 6.714730000000000310e+00 1.595700000000000074e+01 1.490140000000000065e+01 1.464450000000000029e+00 8.793670000000000542e+00 1.243720000000000070e+01 3.746179999999999843e+00 1.338760000000000083e+01 1.072799999999999976e+01 8.543630000000000280e+00 1.083169999999999966e+01 1.331209999999999916e+01 1.116239999999999988e+01 2.357499999999999929e+00 1.084629999999999939e+01 7.214019999999999655e+00 2.935740000000000016e+00 1.199109999999999943e+01 7.999100000000000321e+00 1.112170000000000103e+00 2.371659999999999879e+00 8.901229999999999976e+00 1.457329999999999970e+01 5.088650000000000340e+00 8.987579999999999458e+00 5.862940000000000040e+00 6.217889999999999695e+00 1.854419999999999957e+00 1.536399999999999988e+00 4.434910000000000241e-01 1.045689999999999920e+01 1.081359999999999921e+01 4.987400000000000055e+00 1.351179999999999914e+01 5.388410000000000366e+00 8.558889999999999887e+00 1.377890000000000015e+01 8.255480000000000373e+00 7.968899999999999650e+00 1.139729999999999954e+01 1.471260000000000012e+01 8.846650000000000347e+00 9.248720000000000496e+00 1.544979999999999976e+01 1.033380000000000010e+01 3.162790000000000212e+00 2.577729999999999855e+00 6.437660000000000160e+00 7.295019999999999838e-01 1.537599999999999945e+01 6.046890000000000320e+00 1.158689999999999998e+01 1.313260000000000005e+01 1.587299999999999933e+01 7.764439999999999564e+00 4.783859999999999779e+00 2.462810000000000166e+00 4.371940000000000381e+00 8.974700000000000344e+00 1.591740000000000066e+01 1.529080000000000084e+01 3.128620000000000179e+00 4.399829999999999686e+00 8.836130000000000706e+00 1.334810000000000052e+01 1.498700000000000010e+01 9.244040000000000035e+00 6.401460000000000150e+00 1.428919999999999924e+01 1.378069999999999951e+01 8.743840000000000501e+00 1.368599999999999994e+01 4.223959999999999937e+00 1.636649999999999938e+00 1.023520000000000074e+01 5.537010000000000431e+00 7.051050000000000040e+00 1.300349999999999895e+00 2.156769999999999854e+00 9.313010000000000232e+00 1.163819999999999943e+01 5.992060000000000386e+00 5.375379999999999825e+00 1.086830000000000018e-01 1.106429999999999936e+01 1.297739999999999938e+01 4.538520000000000110e+00 1.429690000000000083e+01 9.691010000000000346e+00 1.093720000000000070e+01 1.365959999999999930e+01 1.140770000000000017e+01 7.570050000000000390e-01 7.708510000000000417e+00 6.701899999999999524e-02 2.690280000000000005e+00 1.573959999999999937e+01 8.703300000000000480e+00 1.519699999999999918e+01 1.018890000000000029e+01 8.712020000000000763e+00 2.370870000000000033e+00 1.356099999999999994e+01 1.546170000000000044e+01 4.511059999999999626e+00 1.136810000000000009e+01 6.179409999999999847e+00 1.342259999999999920e+01 1.379289999999999949e+01 1.118699999999999939e+01 4.242560000000000109e+00 9.623519999999999186e+00 7.195000000000000284e-01 1.272630000000000017e+01 2.231289999999999996e+00 9.347699999999999676e+00 4.164360000000000284e+00 6.766420000000000101e+00 1.214789999999999992e+01 9.357609999999999317e+00 1.821229999999999905e+00 6.496249999999999858e+00 1.075630000000000058e-01 5.464229999999999698e+00 5.303079999999999572e+00 9.987540000000000306e-01 4.042279999999999873e+00 1.462240000000000073e+01 5.360669999999999824e+00 5.201200000000000268e-02 8.481260000000000687e+00 6.737370000000000303e+00 1.870849999999999902e+00 7.931969999999999743e+00 1.277449999999999974e+01 1.331060000000000088e+01 1.795940000000000092e+00 1.010389999999999944e+01 1.300999999999999979e+01 6.499299999999999855e+00 1.153079999999999927e+01 8.698040000000000216e-01 6.942190000000000083e+00 1.026820000000000022e+01 1.657579999999999887e-01 1.597049999999999947e+01 9.697979999999999379e+00 7.522359999999999935e+00 5.714080000000000048e+00 9.802780000000000271e+00 1.392999999999999972e+01 1.448129999999999917e+01 1.680590000000000028e+00 6.015780000000000349e+00 1.486499999999999932e+00 3.537900000000000045e+00 2.606790000000000163e+00 1.024419999999999931e+01 1.088039999999999985e+01 9.451919999999999433e+00 8.711949999999999861e+00 8.896819999999999951e+00 1.567109999999999914e+01 1.315489999999999959e+01 6.412770000000000081e+00 1.686800000000000077e+00 4.066180000000000128e+00 6.785069999999999713e-01 1.406770000000000032e+01 5.184330000000000105e+00 5.287429999999999630e+00 1.256039999999999957e+01 1.124039999999999928e+01 5.758939999999999948e+00 2.132369999999999877e+00 1.343779999999999930e+01 7.073519999999999808e-01 1.318030000000000079e+01 1.414840000000000053e+01 6.547480000000000189e+00 5.215760000000000396e+00 1.002609999999999957e+01 5.666789999999999772e+00 1.121679999999999922e+01 1.554589999999999961e+01 1.359759999999999991e+01 1.313610000000000078e+01 4.055690000000000239e+00 6.453280000000000349e+00 4.735579999999999679e+00 8.616059999999999830e-01 8.895049999999999457e+00 5.180690000000000239e+00 9.100659999999999528e+00 1.232789999999999964e+01 1.259249999999999936e+01 1.289429999999999943e+01 1.213460000000000072e+01 9.233629999999999782e+00 3.081039999999999779e+00 8.843500000000000583e+00 9.502539999999999765e+00 4.684260000000000090e+00 3.559400000000000064e-02 7.963289999999999758e+00 1.382140000000000057e+01 1.422579999999999956e+01 9.700350000000000250e+00 4.171079999999999899e+00 6.847769999999999690e+00 4.492029999999999745e+00 7.729969999999999786e+00 1.082559999999999967e+01 6.186490000000000045e-01 9.430089999999999861e+00 6.594260000000000232e+00 8.093189999999999884e+00 4.028209999999999624e+00 1.472860000000000014e+01 5.602920000000000122e+00 1.007639999999999958e+01 4.407930000000000348e+00 4.939790000000000347e+00 1.017420000000000080e+01 1.540440000000000076e+01 5.697580000000000311e+00 2.655860000000000110e+00 2.502429999999999932e+00 7.782610000000000028e+00 8.357829999999999870e+00 1.286730000000000018e+01 1.541539999999999999e+01 8.359149999999999636e+00 1.399549999999999983e+01 1.984250000000000069e+00 1.340269999999999939e+01 1.219609999999999950e+01 7.301110000000000433e+00 1.486490000000000045e+01 1.084939999999999927e+01 1.404080000000000084e+01 6.316300000000000248e-01 6.705410000000000537e-01 1.800229999999999997e+00 1.523099999999999987e+01 1.307569999999999943e+01 9.656029999999999447e+00 7.572490000000000165e+00 2.535460000000000047e+00 1.487369999999999948e+01 6.355369999999999742e+00 5.891670000000000407e+00 5.811779999999999724e+00 3.116870000000000029e+00 5.542390000000000150e+00 1.317910000000000004e+01 3.387529999999999930e+00 6.660820000000000185e+00 1.342800000000000082e+01 9.761919999999999931e+00 7.742829999999999657e+00 8.765510000000000801e+00 1.337250000000000050e+01 1.155230000000000068e+01 1.155829999999999913e+01 7.735039999999999694e+00 9.496100000000000207e+00 1.726390000000000091e+00 1.205850000000000044e+01 2.490000000000000213e+00 6.836909999999999599e+00 1.061560000000000059e+01 1.177590000000000003e+01 3.254259999999999931e+00 8.812269999999999825e-01 9.714199999999999946e+00 5.445490000000000386e+00 3.467449999999999921e+00 7.373009999999999842e+00 8.368489999999999540e+00 6.157399999999999984e+00 7.800740000000000451e-01 3.874470000000000081e+00 2.591089999999999893e+00 2.942039999999999988e+00 9.640520000000000422e+00 6.822320000000000384e+00 1.374460000000000015e+01 3.395210000000000061e+00 1.535270000000000046e+01 4.734530000000000349e+00 1.368290000000000006e+01 8.313600000000000156e-02 2.089840000000000031e-01 5.299299999999999677e+00 8.367210000000000036e+00 1.302919999999999945e+01 4.672649999999999970e+00 1.129780000000000051e+01 1.195919999999999916e+01 8.448729999999999407e+00 1.288930000000000042e+01 6.173980000000000246e+00 7.142000000000000348e+00 1.337279999999999980e+01 6.287380000000000191e-01 1.522320000000000029e+01 1.545299999999999940e+01 1.477069999999999972e+01 3.281880000000000130e+00 1.039760000000000062e+01 1.670109999999999983e+00 1.009650000000000070e+01 8.777779999999999916e+00 2.179969999999999963e+00 8.940989999999999771e-01 1.091510000000000069e+01 1.299590000000000067e+01 1.382760000000000034e+01 6.539109999999999978e+00 8.649480000000000501e+00 6.789259999999999629e+00 1.775109999999999966e+00 1.387550000000000061e+01 6.845679999999999765e+00 1.315770000000000017e+01 5.124769999999999825e+00 7.854669999999999597e+00 2.152159999999999851e+00 9.066769999999999996e+00 1.708919999999999995e+00 1.441440000000000055e+01 9.902089999999999392e+00 9.747260000000000701e+00 1.308680000000000021e+01 1.045410000000000039e+01 7.034679999999999822e+00 8.991720000000000823e+00 1.155990000000000073e+00 3.327890000000000015e+00 4.885889999999999844e+00 4.511210000000000164e+00 1.355279999999999951e+01 1.335880000000000045e+01 2.285050000000000026e+00 5.529939999999999856e+00 1.294919999999999938e+01 8.552459999999999951e+00 1.102299999999999969e+01 1.133520000000000083e+00 7.596300000000000274e+00 3.200120000000000076e+00 5.814820000000000100e+00 3.372120000000000117e-01 1.788470000000000004e+00 3.259930000000000216e+00 1.450189999999999912e+01 1.250820000000000043e+01 1.413470000000000049e+01 7.699019999999999975e+00 1.225520000000000032e+01 2.843580000000000219e+00 5.496459999999999901e+00 1.564680000000000071e+01 1.343329999999999913e+01 6.694340000000000401e+00 1.377449999999999974e+01 1.461279999999999912e+00 1.087860000000000049e+01 2.981139999999999901e+00 1.040509999999999913e+01 2.715889999999999915e+00 1.274249999999999972e+01 5.332429999999999559e+00 1.078400000000000070e+01 1.079340000000000011e+01 5.589540000000000397e+00 5.537560000000000038e+00 7.444730000000000514e-01 6.239910000000000068e+00