-7.786637018062487186e+04
-7.786078680233968771e+04
-7.785745872595408582e+04
-7.786166184184621670e+04
-7.786042276717364439e+04
-7.786245197010165430e+04
-7.786798602528043557e+04
-7.786112643286731327e+04
-7.786996402974396187e+04
-7.785755962230185105e+04
-7.786950266067284974e+04
-7.787037091003313253e+04
-7.786352911459749157e+04
-7.786775197337388818e+04
-7.787430512549173727e+04
-7.787224409790622303e+04
-7.786491892123961588e+04
-7.786552241981914267e+04
-7.787023254190024454e+04
-7.786783869247764233e+04
-7.786376949024037458e+04
-7.787151577638156596e+04
-7.787179528968680825e+04
-7.786506406699409126e+04
-7.786997418499433843e+04
-7.786519762611672923e+04
-7.787063453736052907e+04
-7.786827021958399564e+04
-7.786279300705697096e+04
-7.786537090049737890e+04
-7.786799939077015733e+04
-7.786929378611451830e+04
-7.786800728171803348e+04
-7.786436360422609141e+04
-7.786574833875316835e+04
-7.786850325361186697e+04
-7.786560042427656299e+04
-7.786888769130456785e+04
-7.786370785204609274e+04
-7.786120262745545187e+04
-7.787165404867849429e+04
-7.786645946897362592e+04
-7.786740360690790112e+04
-7.786589396829278849e+04
-7.786899487758529722e+04
-7.786631873037012701e+04
-7.786933951176099072e+04
-7.786787722799276526e+04
-7.786383633537337300e+04
-7.786185980476404075e+04
-7.786598424893093761e+04
-7.786863007914279297e+04
-7.786536370641592657e+04
-7.786612610676766781e+04
-7.786494034073354851e+04
-7.787081425595561450e+04
-7.786648892618299578e+04
-7.786181937420363829e+04
-7.786317423769949528e+04
-7.786964598249107075e+04
-7.786901444446193636e+04
-7.786453036883969617e+04
-7.786471875822158472e+04
-7.786926080468202417e+04
-7.786416047427107696e+04
-7.786421626140332955e+04
-7.786872302563211997e+04
-7.787065505730999575e+04
-7.786046091564252856e+04
-7.786679475668631494e+04
-7.786021598751496640e+04
-7.786584214147926832e+04
-7.786837762546449085e+04
-7.786477168651569809e+04
-7.786851607093472558e+04
-7.786873058083390060e+04
-7.786863284000720887e+04
-7.786964307589636883e+04
-7.786945601155978511e+04
-7.786553220840754511e+04
-7.786684607558144489e+04
-7.786543510067522584e+04
-7.786562009652866982e+04
-7.786860000173748995e+04
-7.786307260656515427e+04
-7.786886329397602822e+04
-7.787080174563858600e+04
-7.786685582450282527e+04
-7.787082887061781366e+04
-7.786655914749528165e+04
-7.787210222701699240e+04
-7.786064245145088353e+04
-7.786996099873568164e+04
-7.786935487144713989e+04
-7.786787970159735414e+04
-7.786597068011912052e+04
-7.786661062352267618e+04
-7.786910943992166722e+04
-7.786840298133018950e+04
-7.787419584402680630e+04
-7.786472235990401532e+04
-7.786579115791090589e+04
-7.786992924431196298e+04
-7.786683535467371985e+04
-7.786784907183927135e+04
-7.786813998380234989e+04
-7.786112097174381779e+04
-7.786572206535923760e+04
-7.786687489595910301e+04
-7.786570818507722288e+04
-7.786366330450907117e+04
-7.786752446010080166e+04
-7.786183596714562736e+04
-7.786284136928213411e+04
-7.786568273558682995e+04
-7.786900373731050058e+04
-7.786534842629655031e+04
-7.786990559172899520e+04
-7.786535013087409607e+04
-7.787264192984646070e+04
-7.786553919912589481e+04
-7.786582959588334779e+04
-7.786064555424511491e+04
-7.786528690269535582e+04
-7.786970331036836433e+04
-7.786940341548139986e+04
-7.786589770419697743e+04
-7.786614262891704857e+04
-7.786374875473085558e+04
-7.786386450583193800e+04
-7.786410245412039512e+04
-7.787201227231735538e+04
-7.786670526801273809e+04
-7.786605046068008232e+04
-7.786502123245887924e+04
-7.786634725121207885e+04
-7.786921910303023469e+04
-7.786679100276720419e+04
-7.786724924373161048e+04
-7.786555047608038876e+04
-7.786557229643498431e+04
-7.786851933021130390e+04
-7.786673072509716440e+04
-7.786466078374529025e+04
-7.786527586368555785e+04
-7.786965313189216249e+04
-7.786509229043220694e+04
-7.786644354661056423e+04
-7.786709326501307078e+04
-7.786774795432818064e+04
-7.787186335232900456e+04
-7.787110974606648961e+04
-7.786927015409719024e+04
-7.786335047154466156e+04
-7.786462752788166108e+04
-7.786481622818249161e+04
-7.786886922376300208e+04
-7.786372356210481666e+04
-7.786635066975653172e+04
-7.786340213044366101e+04
-7.786577413757963222e+04
-7.786434261776342464e+04
-7.787212788611305587e+04
-7.786815560635345173e+04
-7.786534560309535300e+04
-7.786984880457723921e+04
-7.786563893636387365e+04
-7.786797063470844296e+04
-7.786620978734396340e+04
-7.786573557034120313e+04
-7.786806790635499055e+04
-7.786318847063751309e+04
-7.786546691422852746e+04
-7.786765635208024469e+04
-7.786647319516539574e+04
-7.786406723911949666e+04
-7.786693523409150657e+04
-7.786115243990281306e+04
-7.785759370869885606e+04
-7.786676213819884288e+04
