-3.011291698033890518e-01 1.778531448258962699e+00 -1.605087385764688568e+00 1.947914195863955644e-01 -3.430047304527350960e+00 -1.769040477264856914e+00 -2.810574913612198245e+00 -2.031300220483565955e+00 5.774909008068057625e-01 -2.580253416503034636e+00 -1.277811637311612403e+00 7.334946548958086732e-01 -2.103343051238573125e+00 -5.477404065580400605e+00 -9.839725740143420163e-01 3.037822399527626782e+00 -1.729153407964820532e+00 -5.933916325118353541e-01 7.345133260525147367e-01 2.503665903424470152e+00 -1.700615188956809132e-01 1.466234948061739818e+00 -4.086969358744163006e-01 -1.577735473853356218e+00 -1.118119892543207206e+00 -2.683514584422920013e+00 -6.817392695781010481e+00 1.522723631846508052e+00 4.643489826213448302e-01 -4.063623740109910676e-01 5.280327449315356247e+00 1.802270445709408309e+00 -2.029009881598170750e+00 1.930569018283516458e+00 -2.209334730941451053e+00 8.228610659629154167e-01 8.802182684673590662e-01 6.950180929066477331e-01 9.331619149203095320e-01 1.916053082855624368e-01 1.585679669057773911e+00 -2.820949315725547191e+00 1.429007428091578547e+00 -2.278797716571171250e+00 1.676359399728225785e+00 2.369954644027803869e+00 -4.820037210479918066e+00 -2.068332336597316967e+00 8.281647380024238503e-01 -1.166098224160643682e+00 -1.020270383004530795e-01 -2.137194198258238753e+00 3.435079468050584506e+00 -2.533867112094665863e+00 1.134893256733309874e+00 -1.290523172391760065e+00 -6.655378216224701049e-01 -1.939073714023426209e+00 1.686036004385921050e+00 -1.944091993588440648e+00 1.359729047684098413e+00 2.100761149230587321e+00 2.351608793014275278e+00 -1.423549489849641470e+00 3.837855152855101926e-01 -2.424389016216892845e+00 4.643124729534365613e+00 4.069604640778082150e+00 1.984586871726047086e+00 6.854076170277273228e+00 -6.494412746844906437e+00 -5.465839242604974224e+00 -1.569396871391395276e+00 -2.170235961935826907e+00 2.844776759132052191e-01 -3.562476611781832947e+00 -9.412259235419468961e-01 3.182100379570002580e-01 -2.023615192499228943e+00 1.972245575531728967e+00 2.391614647290182250e-01 2.235255566714917652e-01 1.968660428987279554e+00 -9.885234269859968226e-01 2.306277155209845109e+00 3.716143232904035809e+00 -1.131683491281437748e+00 -2.897726062012424997e+00 1.468569509925164773e+00 -6.103043505047989203e-01 7.961164486684784228e-03 8.538264065558095472e-01 -2.182603997605232937e+00 -1.335666605429226772e+00 7.042653233009154023e-01 1.079314743542872712e+00 8.551767500477378547e-01 -2.248880871934119785e+00 -2.290625820532075974e+00 8.564921265337822609e-01 -1.269392302203713463e+00 4.674564181589391798e-01 -2.978993497452010475e-01 1.199310709102253014e+00 -2.569273262434815130e+00 1.058836933611775555e+00 -9.690082381580563675e-01 3.924513677848904702e+00 3.071135671721489491e+00 6.021210426866163701e-01 2.038587241665636096e+00 -7.460786632486151593e-01 1.289243791352949198e-01 -2.314805505100793859e+00 -2.871353226265841663e+00 -1.785638492204865591e+00 6.774096343407294274e-01 4.999947597959339962e-01 3.249802673609333281e-01 3.815142025650808955e-01 -5.992696890450540659e-01 4.785934095329618665e-01 2.618427102514760407e-01 1.394485223091347370e+00 6.305415051601069854e-01 2.332732780485065494e+00 -4.831941419100687085e-01 9.654508595300440588e-01 4.956614221697039357e-01 1.121641275723986197e+00 -3.687738197050788536e+00 1.309955571691063581e+00 -2.647136042786793375e+00 1.810165275729048728e+00 2.121309407394126878e-01 1.511428260504658283e+00 2.336326154560310897e+00 1.221710675915615552e+00 1.654344584200261536e+00 3.676608918986887797e+00 3.235127843992939844e+00 -9.072102259063573593e-01 -7.090912843335687166e-01 1.078680709450889445e-02 4.174407956501582362e+00 -6.538249030927125727e-01 -2.390635571125432790e+00 1.461114852803121922e+00 1.232833783331419575e-01 7.320548370064715316e-02 -1.064666139180891813e+00 1.445750453261870572e+00 -1.243174761100908743e+00 -2.936361003969413019e+00 -4.025469594483826796e+00 -6.132312945855513675e-01 -2.111435856217997564e+00 -6.233742973952566269e-02 -5.248871542198738638e-01 9.108035999816028738e-01 1.775133478040126889e+00 1.010925964902733121e+00 -6.428663462928327910e-01 1.867404207478296385e+00 -2.553728371436722266e+00 -1.790986387222403442e+00 6.618976534658209676e-01 -1.160767812646047892e+00 5.208371521854383568e-01 -3.718314272592886938e-01 -2.271453616894202554e+00 1.812804770452608238e+00 9.535224825375606672e-01 -1.092744644905664642e-01 4.749383289767445948e-01 -5.578989902541906076e+00 -6.754406833770609797e-01 -2.602558252491566360e-01 -4.079693136196262948e+00 4.261857352893171580e+00 2.139899513228168182e+00 -1.390949955952349937e+00 1.072379963523015345e+00 4.529624399538596080e+00 -2.400784230362560390e+00 -9.309091141441716566e-02 2.060323863808553924e+00 1.492097162678283073e+00 -5.221797823672453820e-01 -6.188697242843305135e-01 -4.368207958627034593e+00 -1.354195004782296208e-01 6.426452314026845913e-01 -3.343503964964694708e-01 -2.255778628065394198e+00 -2.462414092453611758e+00 1.905327468021412063e+00 4.618185026808347970e-01 2.726964688778390933e+00 -1.959400857296817122e+00 3.109933621632377410e+00 -3.010079165682798763e+00 1.357048929527232550e-01 -1.420495533262222665e+00 -1.011741004672232602e+00 -2.800661767444111661e+00 5.610852558212261698e+00 5.535184471700173026e-01 -8.249261761927647596e-01 1.266320347892677667e+00 3.175718900996190586e-01 4.542718000580092674e-01 6.988202405758473512e-01 1.823041875645795340e+00 -8.116109460404449250e-01 -1.661489680476096797e+00 1.521921447593877375e+00 2.694096217468198606e+00 2.679096400385354571e+00 4.557748670903422616e-01 -2.851158751926539114e+00 1.053235527801579252e+00 5.641103646287909390e-01 -1.203356597371290304e+00 -1.107689954596984050e+00 1.683820741719040948e+00 2.074774493210751025e+00 6.575895126526544177e-01 -3.120144501571151530e+00 -9.942415608893641066e-01 1.639892926356714575e+00 1.465315007274588410e+00 8.827230373741309366e-01 1.053014412911430941e+00 -1.289548209992409156e+00 -3.146849009652957108e+00 1.928084303983060188e+00 -1.681095372142795696e-01 3.317188207713010151e+00 7.844333549378571524e-01 1.059914740146079337e+00 7.989667738686910825e-01 -1.956343815385350071e+00 -2.015867429592570925e+00 3.954346704515970812e-01 -1.741773411764860058e-01 3.249719884080696009e+00 -6.343493092567289438e-01 -8.304473635776979945e-01 -2.568435082734950914e+00 8.986201695344370188e-01 -1.267348789242204177e+00 1.002613587695184938e+00 6.920278996828993501e-02 -1.140302344011144831e+00 -1.380290161364507551e+00 6.429537638075424333e-01 1.696422233574789384e+00 -1.635262369180471742e+00 -6.552462090377582093e-01 -6.027283373035117187e-01 3.010294624145525066e+00 -3.660828000699078100e+00 2.665329170259918001e-01 -2.754412759955904844e-01 8.343487558371268653e-01 5.720730717774999974e-01 2.413156379797364526e+00 -2.973224969922516170e+00 2.035121394317731536e+00 2.774491534643385826e+00 7.728885865687472601e-01 -2.965525029538611079e+00 2.699222483374913217e+00 -2.049906267158525086e+00 2.529908127119663508e+00 3.204181015344337302e-01 -1.635715911815613044e+00 1.802785694825521090e-01 -1.582036415577076305e+00 -2.068977169323470144e-01 1.980430426011935863e+00 -3.761189992454647690e+00 -1.574362700447584196e+00 3.612194551941993320e-02 -5.923570205142116851e-01 -3.111325102778286666e+00 -3.111610495252780328e+00 1.287394653806500422e+00 -2.413529189786567830e+00 2.560615328933826262e+00 4.020167979327016639e+00 1.821981038393758912e+00 5.328498613685828111e-01 -6.102503573339487453e+00 2.561378432415175155e+00 1.071502703051869343e+00 -1.928638119649780158e+00 -3.076748390386530474e+00 -9.943408054795934703e-01 -3.872231833404375045e+00 1.983637106139759521e+00 -3.000700809016466852e+00 -1.718336776071175409e+00 7.288553559680944760e-01 -3.014906669377476200e-01 1.593153866565457877e+00 -1.539283594456584137e-01 -4.139085624131418895e-01 -5.489234226424003715e+00 3.997796294650766580e+00 6.796346672004301981e-01 6.918710623770966128e-01 1.661404319844085986e+00 3.398386737582176909e-01 -3.870456743635092289e-01 -2.435204105448514067e+00 -4.670697242115172676e-01 8.240746267553569204e-01 1.458694930307685933e+00 6.783923100502021741e-01 1.713454764984972956e+00 6.129818975582911333e-01 -2.821494903861470949e+00 -8.150726796229511573e-01 5.689183279378274422e-02 -2.170389199696906246e+00 2.069108809816209593e+00 6.017194363396263235e-01 -5.098009480636693791e-01 1.361823982713084025e+00 -1.199990508834289926e-01 -3.652807700834794780e-01 -1.123342831936777753e+00 -2.445996054749770554e+00 -5.764521750437839875e-01 -2.053674476263190218e+00 2.310419202745063405e+00 -1.439180255700420186e-01 -3.740010271302498079e+00 -1.745861466129228212e-01 9.386080260867269986e-01 -4.855009358570567257e-01 -4.352620901533609810e-01 3.675515685832340118e-01 -1.742124624485723805e+00 4.971943140011731987e-01 2.832769192155655258e+00 1.200966499674990917e+00 9.709442789985399669e-01 -1.862015174806777695e+00 -6.077810696537355728e-01 -1.392398001372483263e+00 7.977686396964928095e-01 9.731646838721677018e-01 4.838898824830235035e-01 1.436165894104957985e+00 -8.292425445367275494e-02 -2.225054971189639019e+00 -7.832994983500041197e-01 4.260107974157627098e+00 -1.343121776771944331e+00 3.498212397173969368e+00 1.408656116446473483e+00 1.575353089467178114e+00 1.392536326733994523e+00 1.675464141533463458e+00 -1.851796067337207197e-01 2.055268046134281601e+00 -2.676390056974075060e-01 -6.364920668084673716e-01 -7.392025043856808031e-01 -4.451927198243890715e-01 -1.904110821904922313e+00 1.099644972140312760e+00 -1.067350885323830711e+00 2.815617875769601319e+00 3.272592933914840962e+00 -1.455506762124153808e-01 3.335882700344027896e+00 -9.334164541543173987e-01 -2.117313912751216387e-01 2.258401153506686576e+00 -2.853147757496523163e+00 -3.511289543153873094e+00 3.686444932053758894e+00 -2.092667315809813300e-01 -4.863514568531151494e-01 1.604550539380235730e+00 -2.397769354546423148e+00 1.417857066980012126e+00 8.453865026209201883e-01 -1.035196666530884047e+00 -6.740713651422339581e+00 -1.285227727883047955e+00 1.670007231732875574e+00 1.359147978321616046e+00 6.228899015196296407e-01 -3.162580562755989533e+00 -3.215545292256604681e-01 2.677876154724140867e-01 5.717485985317244390e-01 -2.369633256106077113e+00 1.172489987147951052e-01 -1.028749881931376953e+00 3.091451502140035945e+00 -1.299502493814476134e-01 4.578464565006934883e+00 4.555537522001940065e-01 -2.524085606419319561e+00 -8.027879477028569966e-01 9.332179649738586713e-01 -1.003738188310892010e-01 -3.042623163747216197e-01 -5.572454671986339925e+00 -3.278138289671487904e+00 1.782905923539173515e-02 1.577741130280778670e+00 2.507494276348082862e-01 1.095003616329899732e+00 -1.337923005750087713e+00 1.866977918538917924e+00 -3.223109478382372717e-01 -7.024814917801617264e-01 1.579995987939615487e+00 4.916672130784804473e+00 9.856278503664047674e-01 1.731732738869433019e+00 2.195728451887215549e+00 2.389536167322789062e+00 3.545964985915183831e+00 7.777032347465556716e-01 -3.430726075818039261e-02 4.896702370880371968e-01 -1.232481542169206579e+00 -2.788361094683100116e+00 -2.529797055453914645e+00 1.236495034535733811e-01 -2.826984723785243570e-01 -2.049683609606352541e-01 -4.465960280458180498e-01 -2.063793824921856257e-01 2.009134224077220754e+00 1.122285080008789793e+00 -6.767761144694212083e-02 -8.079316971125138913e-01 -2.402564462338590445e+00 1.142923326790413086e+00 3.382207298271426410e+00 2.212921420147925033e+00 3.975897692995298827e-01 1.260619697492252111e+00 -2.796997430915749483e+00 -1.526721183372117485e+00 -4.222939589565063989e-01 9.560385642991773292e-01 2.368649551955254451e-01 2.261734846141176813e+00 -2.048948788262115794e+00 -1.339794254785551475e+00 1.415248939717612675e+00 2.566449676709690486e+00 -1.941525003980022701e+00 4.719491641943458493e-01 3.907768595795914346e-02 3.424231468695778657e-01 -1.746051727778890617e-01 2.606134143063870479e+00 -1.669751149836843362e+00 1.619805924138437714e+00 6.170303569307024061e-01 1.750546530696996061e+00 2.942689517813724120e-01 2.305095990319914190e+00 -1.330042059688666123e-01 8.744435702897677132e-01 1.712369245140547891e+00 -3.406888347998038302e+00 5.225833427527994068e+00 7.243173585133086956e-01 5.395563274088452932e-01 9.033165469570498818e-01 1.888529935459595466e+00 1.370761652261144325e+00 -3.564856939285311110e+00 7.992974177625640220e-01 1.075434948551783787e+00 -1.147282889671056072e+00 -1.775688322148196496e+00 -8.475626845165181722e-01 1.059704938110775707e+00 2.005468344886833343e+00 -3.684060490784882180e+00 8.289715502411272308e-01 -2.199239550654498832e+00 1.780292654070026792e+00 3.160251143099311877e-01 -1.099989499992404252e+00 -3.298080795880156568e+00 4.973403012507385590e+00 1.912915822518893583e+00 -2.572160611523611085e+00 3.580343723347156337e-01 -4.040740920082945831e-01 -2.908380714393519750e-01 -5.283365465061857780e-01 -9.932403732356001047e-01 1.531837164865337053e+00 -3.190739286906025575e-03 -1.077024918878151938e-01 3.932478956100987411e+00 -8.437353400342553211e-01 -4.445216618438230793e-01 -6.044304077369782036e-01 -9.249559813924375096e-01 5.994476093985221660e-02 -4.544733745625164079e-01 1.792128471341052576e+00 5.609941873397256140e-01 5.691960071021996415e-01 -2.526620200125227367e+00 -1.001254502451785489e-01 -1.477406392220971476e+00 -1.421889071290830975e+00 -8.932671323101515348e-01 2.354325420839049610e+00 -1.402536890416790361e-01 4.370742038112267469e-01 -7.496797506339822892e-01 -7.076550659889548900e-01 -5.612975775378359344e-02 6.181744979320505928e-01 9.787285515731062313e-01 2.119463869392401278e+00 3.049117770869476107e-01 5.648678116827173801e-01 -1.654713280424066735e+00 -1.124400069644090894e-01 -1.016082569829258819e+00 1.217075490753299460e+00 4.482399915430361759e-01 9.192892695565463290e-01 -2.145965774528350689e+00 -1.443795900477095273e+00 2.312316677034939594e-01 -2.977301711432039921e-01 1.495112038494420093e+00 3.605253087053363448e+00 -5.210212431870037131e-01 -1.161480522501269652e+00 2.664655541175977582e+00 -3.143457210082218456e+00 9.271146797850935428e-01 -1.061966480638384613e+00 -5.041352646691276140e-01 -2.051354826799332842e-01 -1.355124715762268561e+00 2.132769329351901000e+00 3.693899074955127038e-01 -2.069744386570217198e+00 -4.440809747255509699e-01 1.620943894491688742e+00 -3.230287999002067756e-01 7.649988987558545839e-01 2.823220628445975988e-01 2.551290965438343772e+00 3.461425564322079929e+00 -2.163876594851029456e+00 -1.102270068684979121e+00 1.724496625534164496e+00 -2.097130751266758630e-01 1.847209218918319351e+00 -7.983548512657228091e-01 1.467630028752372473e+00 2.863831206235404547e+00 -2.800723473925083695e+00 -5.495697466085102123e-01 1.482993914072949115e+00 -1.095553318231221596e+00 -1.722167205877486618e+00 2.134802557899914688e-01 -9.522703551945121969e-01 -4.485099573972869180e+00 5.343076769815368054e-01 -2.447092373228365592e+00 -1.957680274919059604e+00 -1.267020716451705331e+00 -6.229428662491302005e-01 4.092353249208933730e-01 -1.533230702893945585e+00 -1.812365625996360807e-01 -2.729963109532935750e+00 -2.644998427441802580e+00 -4.427210153070045173e+00 4.131329633693964887e+00 -7.843716484568855063e-02 1.552658474207176398e-01 2.800802663908997125e+00 3.726510950148613222e-01 -1.940851374896082504e+00 7.153210678083254948e-01 8.959158830058571166e-01 3.478920380118875499e+00 1.462382920987087997e+00 7.025668524121724268e-01 1.622968895508906551e+00 -3.723423054996660042e+00 -1.537384063284008562e+00 9.711911049224262182e-01 3.349967718846468823e-01 -8.354239912680566649e-01 4.639149803718446430e-01 1.862725313558625473e+00 2.525195294635458332e+00 2.616820677126799666e+00 1.550005095525398113e+00 1.632160075849624858e+00 7.268714926048579217e-02 -2.280193311482478780e-01 -7.128019007226603643e-01 -1.403477400030932465e+00 6.550482340779744117e-01 -3.400083665808896205e-01 -6.113569602260391506e-02 1.519193506914258363e+00 -2.459730374752022275e+00 2.266454877714828786e+00 1.829846557834937659e+00 6.262595896013533059e-01 -2.849642315156661887e+00 -1.307950111059486886e+00 1.773315707954838671e-01 2.633776075435769304e+00 -5.854428093213448481e-01 3.003750651838487329e+00 4.918129946397757357e-01 9.483926170861224636e-02 -1.338247478995863382e+00 1.341234586895563297e+00 -1.787131274823703375e+00 -9.509981732451477932e-01 -9.380485539925847993e-01 -2.583666813342113677e+00 2.699229168243685084e+00 9.248937606907911002e-01 -2.651168047097612224e+00 8.281714228711957171e-01 4.776138191475378658e-01 -1.167926792880101816e+00 7.472048065263466876e-01 9.977593445254195892e-01 2.559255729469752105e-01 -8.785511650397764827e-01 1.865787497676840934e+00 5.494730731216548314e-01 3.561790641401698654e-01 4.759806542844897681e-01 6.217082224090236808e-02 -1.881725767491128076e+00 -4.996744003155564329e-01 -1.236854474787393299e+00 3.252065244578291603e-01 1.603886680489116756e+00 -1.284867773410713898e+00 3.359617069808400913e+00 4.043749625250986135e+00 1.934396362765779198e+00 1.518853607048239684e+00 -7.421746998858124583e-03 -1.282236506217950156e+00 6.953338244009524827e-01 6.557989962631287639e-01 8.047348385995780617e+00 1.016521714285506667e-01 -3.804227177608283661e+00 1.260920516586988838e-01 -3.991547999231719324e+00 -1.562421467938231556e+00 8.929334030922302379e-01 -1.862391070120029468e+00 7.512707494016998000e-01 1.795096038855111154e+00 2.683114006517279382e+00 -4.418710085316209124e+00 -5.004961249538281143e-02 -4.983893628493230588e-01 1.632217668565198343e+00 2.497712256452061297e+00 -4.528679776159055259e-01 -2.852040126163083222e+00 -9.321648410319435252e-01 -3.696099425222438839e+00 -2.526613001035780126e-01 3.511509115381997059e+00 -8.154305772125865215e-02 1.219959240297371794e+00 1.238716467850711211e+00 1.807060411294828084e+00 -2.158401173106150317e+00 -6.663878283978538208e-01 -2.896070271439687427e-01 1.077607016681983776e+00 -8.639760942342867844e-01 -7.921908880373357276e-01 1.402747720893443573e+00 -2.124938262695931446e+00 8.367702209945869773e-01 6.974647548771714112e-01 2.265723655915315327e+00 -3.021894414126834238e+00 -2.913604168007764894e+00 1.606717465303688419e+00 1.156378939186943455e+00 -7.224111424719613650e-01 -7.358240745524863291e-02 1.543073400829589326e-01 -1.116086663995193407e+00 8.962346998242102236e-01 -1.076816659504872931e+00 -9.673195374621337272e-01 6.072946168954095145e-04 -6.205568823182286975e-01 -1.342972652776263098e+00 -7.643550944710508777e-01 -2.120538076381981718e-01 2.543392021653305690e-01 -4.839348253699977676e+00 3.321029950374166262e+00 4.119065470600860479e+00 1.116007988231954573e-01 2.394545705136332525e-01 1.183643433583566051e-01 2.614035657952282765e+00 -9.310309844440906035e-01 1.935572899669637525e-01 1.472524895355443730e+00 -1.722432029524989971e+00 -1.370612014044788163e+00 -6.693744220768786946e-01 1.543949118638711093e+00 4.103671246260473526e-01 4.261264456455169936e-01 -3.506388505902704456e-01 2.597903526943609265e+00 1.152718202203303566e+00 -6.512887667247801993e-01 7.977156749669921110e-02 1.154977687848213419e+00 -1.946633272163120543e+00 -1.147335340179881813e+00 -1.148949993098638434e+00 7.316763705898458037e-01 -4.431898302961861935e-01 -1.219069124309356766e+00 6.220522360404402429e-01 1.068314020647662232e+00 3.532449209699706771e-01 -3.240298332877684206e+00 -2.224537150970152144e+00 -1.414915724720366308e+00 -6.496180637524743284e-01 1.255653868436063414e+00 3.622530387504734328e-01 -1.782977400212965469e+00 -3.975407126471574237e+00 4.025879942582287763e-01 8.921008798197883616e-01 1.916418179534706390e+00 -8.287283238619643777e-01 2.701082933776207118e-01 3.189744269900358642e+00 -3.590995290404203288e+00 7.638686417127249495e-01 -9.517587056231227027e-01 6.170972056184215182e-01 -1.348054181484273473e+00 1.372648327916850874e+00 2.738951686927797446e+00 1.721888498271765044e+00 7.173686945352328870e-01 -1.150056081770054472e+00 -5.444681632941840155e-01 -1.363663350066712132e+00 -3.489109148568634744e+00 -2.227747944863374130e-01 1.765370998529746327e+00 -1.001354261262689560e+00 1.222526744126464893e+00 3.151031166400806716e-01 -1.651366218052032542e+00 5.872466954484143464e-01 -1.516559668618120860e+00 1.320143825920148117e+00 -1.484111829819884321e+00 -4.107602463319039110e+00