-1.075785286254716482e+02 2.172312272459243587e+01 1.343472991664808980e+01 2.172312272459243587e+01 -1.173589346517437377e+02 -5.206029387524657714e+00 1.343472991664808980e+01 -5.206029387524657714e+00 -1.108324527462485634e+02
-1.168973878426693176e+02 -1.282181265233047540e+01 5.389904770460978156e-01 -1.282181265233047540e+01 -1.200414959890064637e+02 8.445477430671435304e-01 5.389904770460978156e-01 8.445477430671435304e-01 -7.424375887218258185e+01
-1.120438167973821635e+02 1.210757251755115327e+01 2.862885576894469963e+01 1.210757251755115327e+01 -1.474678035818384672e+02 1.737926773915084055e+01 2.862885576894469963e+01 1.737926773915084055e+01 -1.095656889147919628e+02
-1.117896531833937814e+02 1.730827974658716073e+01 -5.058631714352067377e+00 1.730827974658716073e+01 -7.939751131467879475e+01 1.922384035658042833e+01 -5.058631714352067377e+00 1.922384035658042833e+01 -1.702108822926884386e+02
-1.143269606784955528e+02 -1.293040448958967303e+01 7.653645988168973346e+00 -1.293040448958967303e+01 -1.198482436999937022e+02 -3.212709618683924617e+01 7.653645988168973346e+00 -3.212709618683924617e+01 -1.150307736285527511e+02
-6.024180161236879627e+01 1.952214851080505298e+01 -2.851162267885337798e+01 1.952214851080505298e+01 -6.279800597745157376e+01 -9.917126545350260614e+00 -2.851162267885337798e+01 -9.917126545350260614e+00 -3.904419392833537472e+01
-1.066822033670180332e+02 1.549577244676317456e+01 -2.838903739322052644e+01 1.549577244676317456e+01 -1.345216337123063965e+02 4.347606307885022447e-01 -2.838903739322052644e+01 4.347606307885022447e-01 -1.107251331563648193e+02
-1.165695983210408571e+02 -1.444111424602879801e+01 -1.272324784515671681e+01 -1.444111424602879801e+01 -1.391659175188163715e+02 -1.875663105393513419e+01 -1.272324784515671681e+01 -1.875663105393513419e+01 -7.323302578846765698e+01
-1.348955502196613452e+02 1.110157688799884212e+01 -1.049270571652497530e+01 1.110157688799884212e+01 -1.020761473104291355e+02 -1.332375522471067342e+01 -1.049270571652497530e+01 -1.332375522471067342e+01 -1.173339654606059099e+02
-4.785553589977897104e+01 -7.969461925954460568e+00 -1.739343937343142699e+01 -7.969461925954460568e+00 -1.043555080501871686e+02 4.014944929009846675e+00 -1.739343937343142699e+01 4.014944929009846675e+00 -1.196826563003392891e+02
-1.097847682328087586e+02 7.943977268443010331e+00 -1.680236490123894555e+01 7.943977268443010331e+00 -7.638651007722732800e+01 2.115993129221865843e+01 -1.680236490123894555e+01 2.115993129221865843e+01 -1.083685705723659822e+02
-9.852197459090116638e+01 1.947615134623933031e+01 -4.753660679964816005e+00 1.947615134623933031e+01 -1.289312484142424751e+02 -4.393531179882785409e+00 -4.753660679964816005e+00 -4.393531179882785409e+00 -1.163379892246001646e+02
-1.016344916486964109e+02 -8.876028037581819019e-01 9.293111608197868634e+00 -8.876028037581819019e-01 -8.474084032547912670e+01 1.858503700735818942e+00 9.293111608197868634e+00 1.858503700735818942e+00 -6.412833126742241063e+01
-9.487616900508152185e+01 -8.424795647005584698e+00 9.055578339454401160e+00 -8.424795647005584698e+00 -7.342210241802719395e+01 1.218601224474256561e+01 9.055578339454401160e+00 1.218601224474256561e+01 -6.938562194030602370e+01
-6.856041984115407217e+01 2.679500205202201357e+01 1.974616256023858796e+01 2.679500205202201357e+01 -5.025502092324386894e+01 -1.552421473577833488e+01 1.974616256023858796e+01 -1.552421473577833488e+01 -5.093484648651039493e+01
-8.535599280472349903e+01 7.791965343934870170e+00 -1.863666026465951475e+01 7.791965343934870170e+00 -8.055008318037276638e+01 1.337621239205642187e-01 -1.863666026465951475e+01 1.337621239205642187e-01 -8.015668586236465387e+01
-1.115085338599566427e+02 -7.572445397625356733e+00 3.010049368336651909e+01 -7.572445397625356733e+00 -1.526141198173359612e+02 -2.483262614959893710e+01 3.010049368336651909e+01 -2.483262614959893710e+01 -1.110879323904352418e+02
-1.077336274935416753e+02 1.100908720204614966e+01 1.203457127879048016e+01 1.100908720204614966e+01 -1.145683547267395426e+02 -8.136953623851332917e-01 1.203457127879048016e+01 -8.136953623851332917e-01 -7.506563016763146834e+01
-1.088827893900796226e+02 -1.197976154837069096e+01 -8.637832171815873039e+00 -1.197976154837069096e+01 -8.756746089567248248e+01 -1.638158651856709369e+01 -8.637832171815873039e+00 -1.638158651856709369e+01 -7.515112249301908776e+01
-9.183841162639703271e+01 2.684120463948329061e+01 -7.259870916038186017e+00 2.684120463948329061e+01 -1.078892624466402310e+02 2.011023455078705169e+00 -7.259870916038186017e+00 2.011023455078705169e+00 -1.088218910472200776e+02
-1.265456509458122696e+02 4.829195849597652312e+01 -4.977959826849437164e+00 4.829195849597652312e+01 -1.112721447992869344e+02 -3.057515522974212985e+01 -4.977959826849437164e+00 -3.057515522974212985e+01 -9.132051250605141490e+01
-6.841659683182574270e+01 -1.017762874115064697e+01 -1.167366870642367971e+01 -1.017762874115064697e+01 -9.530872369434224822e+01 -3.334223981561007832e+01 -1.167366870642367971e+01 -3.334223981561007832e+01 -3.657875771879306370e+01
-1.148251196004177928e+02 9.138317947131286090e+00 -9.301398525626504821e+00 9.138317947131286090e+00 -1.158314041456905983e+02 2.897994462521178871e+00 -9.301398525626504821e+00 2.897994462521178871e+00 -1.175014675951059075e+02
-6.498735432446579807e+01 1.528930130896930173e+01 4.646724698883573090e+00 1.528930130896930173e+01 -9.910412882204151686e+01 1.490455109847312620e+01 4.646724698883573090e+00 1.490455109847312620e+01 -7.356681330227461046e+01
-1.137921145510932917e+02 7.055181891864889643e+00 -8.100567807105317542e+00 7.055181891864889643e+00 -4.034943369722626727e+01 2.637909221743002686e+00 -8.100567807105317542e+00 2.637909221743002686e+00 -8.176046084523585478e+01
-7.540329551587578294e+01 6.842078420063856470e+00 -1.509198434486821228e+01 6.842078420063856470e+00 -1.037245797543972543e+02 -1.489266838944268301e+01 -1.509198434486821228e+01 -1.489266838944268301e+01 -1.079489824715523980e+02
-1.084710676879543172e+02 5.638695315701571786e+00 1.166056211476393378e-01 5.638695315701571786e+00 -6.881377805484311239e+01 6.152960716302325217e+00 1.166056211476393378e-01 6.152960716302325217e+00 -4.269101848299135327e+01
-9.143366412066890803e+01 -2.268936100548835544e+00 2.093673384334144671e+01 -2.268936100548835544e+00 -9.388360121092401300e+01 -1.865514068872091258e+01 2.093673384334144671e+01 -1.865514068872091258e+01 -6.279690707950842921e+01
-1.157475872769307017e+02 1.210639598146283413e+00 2.522162278480850262e+01 1.210639598146283413e+00 -7.370315581267878713e+01 -2.856418853960234649e+00 2.522162278480850262e+01 -2.856418853960234649e+00 -1.593280848612801890e+02
-8.561638172519734269e+01 -8.587079734496837702e+00 1.268848275650985968e+01 -8.587079734496837702e+00 -1.133345990708874922e+02 -2.593386621922504887e+01 1.268848275650985968e+01 -2.593386621922504887e+01 -5.325096621521379348e+01
-9.094712597449394309e+01 7.907300499566112251e+00 -5.722460765099769420e-01 7.907300499566112251e+00 -8.747475484111851074e+01 -3.489421411892690372e+01 -5.722460765099769420e-01 -3.489421411892690372e+01 -6.339291959228447837e+01
-1.070780614324008155e+02 -3.896176385503395956e+00 4.029152709574407076e+00 -3.896176385503395956e+00 -9.573772204745199588e+01 -1.199871161957249477e+01 4.029152709574407076e+00 -1.199871161957249477e+01 -1.138874750665578972e+02
-9.383687042952435320e+01 -1.970190423557319193e+01 -2.873168023749922284e+01 -1.970190423557319193e+01 -8.880631012294973914e+01 -6.078164636356297557e+00 -2.873168023749922284e+01 -6.078164636356297557e+00 -9.959584581432571326e+01
-1.106349000676477488e+02 -1.186278937335737105e+01 -2.017577132735520706e+01 -1.186278937335737105e+01 -1.057921337066540985e+02 5.931569817970065550e+00 -2.017577132735520706e+01 5.931569817970065550e+00 -9.583776554310196616e+01
-1.166670856125803084e+02 7.274102624424532593e+00 -1.898808080126478259e+01 7.274102624424532593e+00 -1.488542691418512334e+02 -1.728971022957229664e+01 -1.898808080126478259e+01 -1.728971022957229664e+01 -9.895949277587503445e+01
-1.071955091092343366e+02 -1.042033347401576115e+01 2.543271428316902316e+01 -1.042033347401576115e+01 -9.005526376390629650e+01 -6.789077785701977952e+00 2.543271428316902316e+01 -6.789077785701977952e+00 -1.275985395059395273e+02
-6.986065462247063351e+01 2.347811594103205834e+01 -2.054534442595312882e+01 2.347811594103205834e+01 -1.563239160351542409e+02 -1.349914335834871437e+01 -2.054534442595312882e+01 -1.349914335834871437e+01 -6.510786170787257277e+01
-9.484338330730933819e+01 -1.790475045169531398e+01 6.111300596711239486e+00 -1.790475045169531398e+01 -1.375005345040734710e+02 -2.219353784625466375e+01 6.111300596711239486e+00 -2.219353784625466375e+01 -1.030735373243307293e+02
-1.257054005377176225e+02 5.899554901520997596e+00 3.296415401258430933e+01 5.899554901520997596e+00 -5.810905121862604261e+01 -1.043943882150788838e+01 3.296415401258430933e+01 -1.043943882150788838e+01 -9.857872527494998849e+01
-9.997547623461325372e+01 1.554880464548570806e+01 4.890718479509662764e+00 1.554880464548570806e+01 -1.011166638027135747e+02 -3.268248791296418432e+01 4.890718479509662764e+00 -3.268248791296418432e+01 -9.578741580593258220e+01
-5.630675066210219626e+01 1.668107655445723481e+01 1.836158144346722310e+01 1.668107655445723481e+01 -6.704225504092036658e+01 1.252453797636604094e+01 1.836158144346722310e+01 1.252453797636604094e+01 -8.104263408270136892e+01
-7.294089304867456747e+01 1.727172643508863459e+01 2.300353941478917719e+01 1.727172643508863459e+01 -9.961675847601667044e+01 6.581347637200010148e+00 2.300353941478917719e+01 6.581347637200010148e+00 -5.796758459064120217e+01
-1.268713475466881988e+02 2.060152593330496984e+01 7.819220151156002219e-01 2.060152593330496984e+01 -1.400741835239957993e+02 -8.880462830253962991e+00 7.819220151156002219e-01 -8.880462830253962991e+00 -8.628059845756827428e+01
-1.310091519130762947e+02 1.143091866342794738e+01 1.236104273381026886e+01 1.143091866342794738e+01 -9.983897793881615712e+01 -1.214519825365809069e+01 1.236104273381026886e+01 -1.214519825365809069e+01 -1.550012644485409226e+02
-7.206323607313851198e+01 1.287870868516909617e+01 1.900297663398138326e+01 1.287870868516909617e+01 -5.301914329568477058e+01 1.136417404096211214e+01 1.900297663398138326e+01 1.136417404096211214e+01 -8.615184564859404759e+01
-1.008132137123176051e+02 1.918974015591771121e+01 1.220631500152924875e+00 1.918974015591771121e+01 -1.089823306560233362e+02 1.667162124658174349e+01 1.220631500152924875e+00 1.667162124658174349e+01 -6.507569584250521189e+01
-1.094437893903494654e+02 3.266236054202018124e+01 -5.415744272478508758e-01 3.266236054202018124e+01 -5.465264681526785040e+01 2.436099681825664831e+00 -5.415744272478508758e-01 2.436099681825664831e+00 -6.906354607705885940e+01
-8.681167493483380326e+01 2.228875937671185881e+01 9.220461395673845706e-01 2.228875937671185881e+01 -8.879924708815040901e+01 -2.040359982795348248e+00 9.220461395673845706e-01 -2.040359982795348248e+00 -1.069711771252325860e+02
-8.285340126986854159e+01 3.029345705665876665e+01 -2.558725644755554285e+01 3.029345705665876665e+01 -8.638988674717225535e+01 -1.109040259522408434e+01 -2.558725644755554285e+01 -1.109040259522408434e+01 -1.076110562082300675e+02
-7.499168657997444143e+01 1.219291542132825645e+00 -1.969876714540607310e+01 1.219291542132825645e+00 -1.005446216217913786e+02 -3.121948208752785092e+01 -1.969876714540607310e+01 -3.121948208752785092e+01 -1.074654403941267589e+02
-9.560391741346506933e+01 2.898490582996325227e+00 2.471912503605257783e+01 2.898490582996325227e+00 -1.111948742261962764e+02 -5.474469256376100823e+00 2.471912503605257783e+01 -5.474469256376100823e+00 -1.055439092834949122e+02
-8.930812363782304431e+01 3.685308179539386941e+01 -2.018175608286632894e+01 3.685308179539386941e+01 -6.407929883320781528e+01 -5.432248360280781618e+00 -2.018175608286632894e+01 -5.432248360280781618e+00 -6.164324980708997970e+01
-1.141718045363840019e+02 2.655644039604428386e+01 -1.183765065105665748e+01 2.655644039604428386e+01 -1.153865571743647962e+02 -2.539914227644469591e+01 -1.183765065105665748e+01 -2.539914227644469591e+01 -7.254398903201811777e+01
-8.449062480208570491e+01 2.655910300259638035e+01 1.663355513673339781e+00 2.655910300259638035e+01 -7.934007945136291085e+01 -3.760623747769499481e+00 1.663355513673339781e+00 -3.760623747769499481e+00 -1.024135586164804437e+02
-7.712258842220846589e+01 2.370363693413561634e+01 -2.406296357943128683e+01 2.370363693413561634e+01 -7.451317850897083872e+01 1.587333514687645775e-01 -2.406296357943128683e+01 1.587333514687645775e-01 -8.258692500971145023e+01
-9.568719183341401902e+01 3.605634133115553652e+01 -2.306216919650220465e+00 3.605634133115553652e+01 -9.565816484007285680e+01 -8.735712999658323596e+00 -2.306216919650220465e+00 -8.735712999658323596e+00 -5.511817175199008290e+01
-8.680992158550962756e+01 6.696803959247962901e+00 -1.005223117280388045e+01 6.696803959247962901e+00 -1.419728757832828023e+02 -2.093274807915475932e+01 -1.005223117280388045e+01 -2.093274807915475932e+01 -1.186904196774173670e+02
-1.205709967937521583e+02 5.327544539510757460e+00 2.975753595913514360e+01 5.327544539510757460e+00 -1.443816035642913391e+02 -7.076023279193086601e+00 2.975753595913514360e+01 -7.076023279193086601e+00 -9.024870034805707064e+01
-1.600900230723825075e+02 6.516118867699542960e+00 -5.751367864780716488e+00 6.516118867699542960e+00 -1.009037357167552216e+02 -1.841871904548538197e+01 -5.751367864780716488e+00 -1.841871904548538197e+01 -1.210204124517316160e+02
-4.594214432137560777e+01 2.245956787799055121e+01 2.462114951512815963e+01 2.245956787799055121e+01 -6.882857486710571493e+01 -9.308175190218275219e+00 2.462114951512815963e+01 -9.308175190218275219e+00 -1.104719976750594554e+02
-1.263527486648309406e+02 -4.105014595795160481e+00 -1.010938175693811303e+01 -4.105014595795160481e+00 -9.576940884728101366e+01 -3.663321769573268938e+00 -1.010938175693811303e+01 -3.663321769573268938e+00 -9.463431574630023135e+01
-5.663596236181924581e+01 3.059936687622422369e+01 -3.550370486825429772e+00 3.059936687622422369e+01 -1.105576625862254900e+02 4.350435645535744911e+00 -3.550370486825429772e+00 4.350435645535744911e+00 -8.089619454060544967e+01
-8.931466484246638515e+01 8.789521325281178799e-01 2.539187280054462192e+01 8.789521325281178799e-01 -8.963239958791818651e+01 6.246264202747089378e+00 2.539187280054462192e+01 6.246264202747089378e+00 -9.601041928672253789e+01
-8.295032880310893120e+01 -1.931049267222215704e+01 -8.029957823215621460e+00 -1.931049267222215704e+01 -8.351817623323074713e+01 -1.783784953473396939e+01 -8.029957823215621460e+00 -1.783784953473396939e+01 -5.307215793036791496e+01
-5.193079904924564261e+01 -1.439054279468093966e+01 -9.488381725330947702e+00 -1.439054279468093966e+01 -1.104103244780560829e+02 2.100883906154156122e+01 -9.488381725330947702e+00 2.100883906154156122e+01 -1.093358329131241362e+02
-1.257703617738063997e+02 2.192409580895239785e+01 -1.540536549951117440e+00 2.192409580895239785e+01 -1.378414395266570125e+02 -3.276498747876930295e+00 -1.540536549951117440e+00 -3.276498747876930295e+00 -1.527728546961125176e+02
-7.523943397400562105e+01 1.033462630733463605e+01 -2.575910199081255403e+00 1.033462630733463605e+01 -5.623106543448059114e+01 -2.343886922227466485e+01 -2.575910199081255403e+00 -2.343886922227466485e+01 -7.171960989720487589e+01
-2.143333618409100794e+01 -8.182029821829527094e+00 2.050223667314389786e+01 -8.182029821829527094e+00 -6.382507896338312747e+01 -2.774748972648029266e+01 2.050223667314389786e+01 -2.774748972648029266e+01 -2.737040532825146144e+01
-1.625157734621824943e+02 1.843246176083286159e+01 2.800420343534809220e+01 1.843246176083286159e+01 -1.182350739924553551e+02 8.212878384242101149e+00 2.800420343534809220e+01 8.212878384242101149e+00 -1.263292701260802033e+02
-9.027785996262326762e+01 4.297584687335685771e+00 7.759778859912560556e+00 4.297584687335685771e+00 -7.615665433011081120e+01 -2.378544004759594088e+01 7.759778859912560556e+00 -2.378544004759594088e+01 -7.930804620722055631e+01
-4.959041549104454560e+01 2.259203128120090298e+01 -9.876950459812588790e+00 2.259203128120090298e+01 -7.938412878941460349e+01 2.670897007788769528e+01 -9.876950459812588790e+00 2.670897007788769528e+01 -5.435954499869237111e+01
-7.532192921243871808e+01 1.409315204332570381e+01 9.534126629562713617e+00 1.409315204332570381e+01 -7.815463457680236559e+01 -2.771468722832260756e+00 9.534126629562713617e+00 -2.771468722832260756e+00 -8.577345896593685382e+01
-1.395907297758697609e+02 -7.480118369950559121e+00 -1.386590671974567890e+01 -7.480118369950559121e+00 -1.308392480871021917e+02 4.119370779765063162e+00 -1.386590671974567890e+01 4.119370779765063162e+00 -8.014517836194394818e+01
-9.562067197974221244e+01 2.389603902182103567e+01 7.368445698360575058e+00 2.389603902182103567e+01 -7.397418981378380920e+01 1.304418000943270251e+01 7.368445698360575058e+00 1.304418000943270251e+01 -1.309104053562774652e+02
-5.841325961733164007e+01 -1.991966421422484856e+01 -1.647414340606182748e+01 -1.991966421422484856e+01 -6.561941257345691270e+01 -2.119121641010320900e+01 -1.647414340606182748e+01 -2.119121641010320900e+01 -6.312624223660384359e+01
-1.158527490354815370e+02 1.535474033783994274e+00 1.427543953528000209e+01 1.535474033783994274e+00 -5.976476281144346814e+01 -3.524112655208689660e+01 1.427543953528000209e+01 -3.524112655208689660e+01 -4.865116881133009485e+01
-7.057531222137477300e+01 1.941745996311276201e+01 1.273103253287910874e+01 1.941745996311276201e+01 -7.380375906662780494e+01 1.295545564624469392e+01 1.273103253287910874e+01 1.295545564624469392e+01 -6.278448777634682898e+01
-6.978904883391251701e+01 1.454119363341144755e+01 -5.779859536747224968e-01 1.454119363341144755e+01 -8.683539453366148564e+01 -1.254296774471961307e+01 -5.779859536747224968e-01 -1.254296774471961307e+01 -9.313581096083180455e+01
-7.865762488231530369e+01 -1.393291862107190404e+01 -5.537306516454297167e+00 -1.393291862107190404e+01 -9.353388031331954267e+01 -9.898675649239150331e+00 -5.537306516454297167e+00 -9.898675649239150331e+00 -1.150108794265955083e+02
-1.023288620184428908e+02 6.549273155747768804e+00 1.052110651367894967e+01 6.549273155747768804e+00 -1.121723331282027658e+02 1.765790493290448637e+01 1.052110651367894967e+01 1.765790493290448637e+01 -1.185528968126554616e+02
-1.377472593655501782e+02 -3.440792899673977701e+01 5.626357468954574337e+00 -3.440792899673977701e+01 -9.947883622027192985e+01 -3.829122177751838763e+01 5.626357468954574337e+00 -3.829122177751838763e+01 -9.585229584015806381e+01
-9.714468153227446123e+01 -1.039233181329330336e+01 -2.390473856689985865e+01 -1.039233181329330336e+01 -9.329981861514562524e+01 3.399693938414066530e+00 -2.390473856689985865e+01 3.399693938414066530e+00 -6.159710958469612763e+01
-1.131484856729601631e+02 -1.722426432781667127e-01 4.599357793796170490e+00 -1.722426432781667127e-01 -8.431262471760338428e+01 1.465778805430207754e+01 4.599357793796170490e+00 1.465778805430207754e+01 -6.473044104738222870e+01
-1.391499983898913797e+02 -5.404798312215915779e+00 -1.399307341959694284e+01 -5.404798312215915779e+00 -1.366797641429781152e+02 2.774735379608843644e+00 -1.399307341959694284e+01 2.774735379608843644e+00 -1.417808074123458937e+02
-1.007986391233360592e+02 1.389149879790387310e+01 1.411171163284004137e+01 1.389149879790387310e+01 -5.546625944848192091e+01 1.903591073515890741e+01 1.411171163284004137e+01 1.903591073515890741e+01 -1.069779604081580260e+02
-7.217189638469623958e+01 1.698907013092858165e+01 1.513682355559019044e+01 1.698907013092858165e+01 -7.394212144156266220e+01 -1.648424654698465375e+01 1.513682355559019044e+01 -1.648424654698465375e+01 -9.263311033469327072e+01
-8.293108319785291371e+01 -9.514743057504480461e+00 -2.145721971395305872e+01 -9.514743057504480461e+00 -1.032144551397222187e+02 1.604580841362844978e+01 -2.145721971395305872e+01 1.604580841362844978e+01 -5.150609472194157235e+01
-6.404854369112072732e+01 2.667599906677230948e+01 3.755234922296531863e+01 2.667599906677230948e+01 -9.602951037934211342e+01 1.075553043834652200e+01 3.755234922296531863e+01 1.075553043834652200e+01 -8.067577322815817809e+01
-1.053168121087689428e+02 1.170285148515777252e+01 1.065362820913599862e+01 1.170285148515777252e+01 -1.037762078481731862e+02 -9.574018381303185166e+00 1.065362820913599862e+01 -9.574018381303185166e+00 -1.116696325020642178e+02
-5.126622467230438929e+01 -9.863573534676904231e+00 -2.802707792387434438e+01 -9.863573534676904231e+00 -9.824921956848652371e+01 2.331764960434276723e+00 -2.802707792387434438e+01 2.331764960434276723e+00 -1.807587205106760564e+01
-4.575694425349692551e+01 1.056529890955878059e+01 -6.674257587341757336e+00 1.056529890955878059e+01 -9.515301364861146283e+01 2.113326348028520485e+00 -6.674257587341757336e+00 2.113326348028520485e+00 -7.334729564692676718e+01
-7.400590181419110536e+01 6.994334459264487158e+00 2.688957854949613946e+01 6.994334459264487158e+00 -9.872845514709298698e+01 7.356691283183120156e+00 2.688957854949613946e+01 7.356691283183120156e+00 -1.529331413195870937e+02
-1.128898676658498630e+02 3.079124000631736635e+00 7.945490575895422403e+00 3.079124000631736635e+00 -1.132064828947036119e+02 -2.664042017763338777e+01 7.945490575895422403e+00 -2.664042017763338777e+01 -9.217942508783251299e+01
-8.432210853522398963e+01 7.635508444702759689e+00 5.324691274038246824e-01 7.635508444702759689e+00 -1.204491894168786956e+02 -6.994967782887969721e-01 5.324691274038246824e-01 -6.994967782887969721e-01 -6.124880221043617468e+01
-1.498775144399506587e+02 1.795607130205744806e+00 -1.140618085941782311e+01 1.795607130205744806e+00 -8.808828379219947635e+01 -4.030425211501168503e-01 -1.140618085941782311e+01 -4.030425211501168503e-01 -9.674560212024572081e+01
-1.054258728295146597e+02 1.843195494920329525e+00 2.853781218890237525e+01 1.843195494920329525e+00 -6.136328767384267024e+01 -2.492482895624147687e+01 2.853781218890237525e+01 -2.492482895624147687e+01 -9.739830218834929099e+01
-1.085042968140834745e+02 1.282088990388388439e+01 9.263032299800631364e+00 1.282088990388388439e+01 -7.191219577092573445e+01 -5.434168186152283475e+00 9.263032299800631364e+00 -5.434168186152283475e+00 -1.063732768600482785e+02
-1.141777248904173518e+02 -1.549177980969150781e+01 -6.082034325152184451e+00 -1.549177980969150781e+01 -1.055625513476290251e+02 -1.873934549365533897e+01 -6.082034325152184451e+00 -1.873934549365533897e+01 -1.083460402371913744e+02
-1.265145480866553527e+02 -1.452470507323820748e+01 -6.382214704156027096e+00 -1.452470507323820748e+01 -7.420155019454946910e+01 -4.558107501791018201e+00 -6.382214704156027096e+00 -4.558107501791018201e+00 -8.599249195561786507e+01
-4.975553298900725707e+01 -3.046444705301122102e+00 -4.159717796497737652e+01 -3.046444705301122102e+00 -8.333200836132614597e+01 1.595391132309193871e+01 -4.159717796497737652e+01 1.595391132309193871e+01 -5.959338818808333116e+01
-7.761884024582397501e+01 -1.400879068934448135e+01 1.965852309467247538e+00 -1.400879068934448135e+01 -1.081736685364063248e+02 -7.302515894591993018e+00 1.965852309467247538e+00 -7.302515894591993018e+00 -8.557687409136194390e+01
-1.069224710257789752e+02 -1.834861383681488434e+01 -1.227106597824785261e+01 -1.834861383681488434e+01 -1.159391679275851743e+02 1.601457649696468266e+01 -1.227106597824785261e+01 1.601457649696468266e+01 -1.011846053253713791e+02
-9.879609197184993263e+01 -9.190591073890304941e+00 2.440313702159125597e+01 -9.190591073890304941e+00 -9.863488183627485739e+01 -1.797194486630049326e+01 2.440313702159125597e+01 -1.797194486630049326e+01 -1.076372854282811886e+02
-1.134221901717074417e+02 -1.326140975773559827e+00 -4.174047303491859395e+01 -1.326140975773559827e+00 -9.401798876737788646e+01 3.752215918475448886e-01 -4.174047303491859395e+01 3.752215918475448886e-01 -1.156586327993714463e+02
-1.212247756502465279e+02 -1.774009241882118815e+01 -3.066473284887303308e+01 -1.774009241882118815e+01 -9.780280405207713557e+01 -3.445665113292501758e+01 -3.066473284887303308e+01 -3.445665113292501758e+01 -3.547564135156700615e+01
-7.438582369571211927e+01 1.933129409499694518e+01 6.820973063042109708e+00 1.933129409499694518e+01 -9.830604916343698108e+01 -5.922979220845766335e+00 6.820973063042109708e+00 -5.922979220845766335e+00 -1.282833433288943468e+02
-5.881871579386676530e+01 2.418312070025529792e+01 -3.406311075708878633e+01 2.418312070025529792e+01 -8.084428669495562758e+01 2.570176762064288667e+01 -3.406311075708878633e+01 2.570176762064288667e+01 -9.294951326776643441e+01
-6.744331460747766016e+01 5.816209461760558641e-01 1.056178228340990621e+01 5.816209461760558641e-01 -6.390722495743864329e+01 -6.692773139481952960e+00 1.056178228340990621e+01 -6.692773139481952960e+00 -4.337017101263228369e+01
-4.712203488666590090e+01 -2.737225846168351850e+01 -5.508921756031945449e+00 -2.737225846168351850e+01 -6.975970976068290952e+01 2.275410943669400510e+01 -5.508921756031945449e+00 2.275410943669400510e+01 -8.878223797057762567e+01
-6.870125212731024078e+01 -2.770045526538496006e+00 -3.503092623781231651e+01 -2.770045526538496006e+00 -8.608658404197643677e+01 3.859824933182288142e-01 -3.503092623781231651e+01 3.859824933182288142e-01 -6.813724536713661450e+01
-8.408070557768463971e+01 2.507691393697145799e+01 -1.782827484230083570e+01 2.507691393697145799e+01 -7.235060488543422252e+01 1.691349919683871050e+01 -1.782827484230083570e+01 1.691349919683871050e+01 -4.724062218964987636e+01
-8.393909334635870323e+01 7.920101375119827924e-01 1.505062026843391854e+00 7.920101375119827924e-01 -1.149685742740213357e+02 -1.566114118685464629e-01 1.505062026843391854e+00 -1.566114118685464629e-01 -1.287572045659965454e+02
-1.406121341589993392e+02 5.361257567652850220e+00 -1.741358430841482985e+01 5.361257567652850220e+00 -1.217185308347546737e+02 -2.645817366843767893e+00 -1.741358430841482985e+01 -2.645817366843767893e+00 -5.972774698024081630e+01
-9.522758928713550119e+01 2.572161320330265255e+01 -1.773730559123683292e+01 2.572161320330265255e+01 -1.136845052818351860e+02 2.644166041678876766e+01 -1.773730559123683292e+01 2.644166041678876766e+01 -1.285991419571917334e+02
-8.585105281917296338e+01 4.201138408774783528e+01 3.402303216469733371e+01 4.201138408774783528e+01 -9.762740930010541263e+01 8.599426745090475777e+00 3.402303216469733371e+01 8.599426745090475777e+00 -1.245579795174903524e+02
-7.539626073627024994e+01 1.292453122754602468e+01 1.084406846998614249e+01 1.292453122754602468e+01 -5.467511249441336219e+01 -1.221003985063793351e+01 1.084406846998614249e+01 -1.221003985063793351e+01 -5.378866942635798409e+01
-1.040074045715150106e+02 1.732774681147035523e+01 3.239539681613198052e+00 1.732774681147035523e+01 -8.785714179738623386e+01 -1.007130953785867078e+01 3.239539681613198052e+00 -1.007130953785867078e+01 -7.419395642029876115e+01
-1.191194870139282358e+02 -1.682314315984583430e+01 -1.572929780535723765e+01 -1.682314315984583430e+01 -1.233126275228154185e+02 -2.133966512557537953e+01 -1.572929780535723765e+01 -2.133966512557537953e+01 -8.421009272848752403e+01
-7.978768346777148679e+01 2.935554626214367957e+01 -9.794235289060083671e-01 2.935554626214367957e+01 -1.322659134059231008e+02 1.119298218543223022e+01 -9.794235289060083671e-01 1.119298218543223022e+01 -1.020039827817771396e+02
-9.741140776180384364e+01 3.442003596546165767e+01 8.847933974739053298e+00 3.442003596546165767e+01 -8.009801993436764178e+01 -2.130245812634971969e+01 8.847933974739053298e+00 -2.130245812634971969e+01 -6.884259911618615035e+01
-6.369056718589698107e+01 1.180413439106607143e+01 -1.626432619148714309e+01 1.180413439106607143e+01 -7.365860755408769478e+01 4.186267878456968461e+00 -1.626432619148714309e+01 4.186267878456968461e+00 -8.912358947613368798e+01
-6.748109052884900905e+01 1.506482524893422692e+01 1.427039789231911904e+01 1.506482524893422692e+01 -7.544416118087325174e+01 -4.484690580764612911e+00 1.427039789231911904e+01 -4.484690580764612911e+00 -1.243002468397862401e+02
-1.400051151027523133e+02 8.014412121041326387e+00 -8.770678165623531086e+00 8.014412121041326387e+00 -1.068594655072943596e+02 -8.019841700176721488e+00 -8.770678165623531086e+00 -8.019841700176721488e+00 -7.957524310209552709e+01
-1.159386310789027306e+02 8.568712585761982581e+00 4.740687218632675837e+00 8.568712585761982581e+00 -9.834444746272609450e+01 -1.452875880262082120e+01 4.740687218632675837e+00 -1.452875880262082120e+01 -1.016935416945985082e+02
-8.426971118743271916e+01 2.467851392235070662e+00 -1.049815336880235961e+01 2.467851392235070662e+00 -7.633147863262905730e+01 1.920547778976889886e+00 -1.049815336880235961e+01 1.920547778976889886e+00 -7.906490033696015018e+01
-1.187093659303497333e+02 -4.813618964889645468e+00 -2.349640723348082005e+01 -4.813618964889645468e+00 -5.860112789189093263e+01 5.472223350294919797e+00 -2.349640723348082005e+01 5.472223350294919797e+00 -9.919976399835410064e+01
-8.402067372743537987e+01 2.914034757862846803e+01 -1.020857708767110239e+01 2.914034757862846803e+01 -4.236896807487374872e+01 9.788514248691214448e+00 -1.020857708767110239e+01 9.788514248691214448e+00 -7.516879166210139829e+01
-1.093973605067863986e+02 -4.177054394312308183e+00 -4.697650485634921935e+00 -4.177054394312308183e+00 -1.104620969024166328e+02 -7.175261883646330219e+00 -4.697650485634921935e+00 -7.175261883646330219e+00 -1.154040244842696552e+02
-9.365539622895953187e+01 7.380582195032744153e+00 -2.329777423918141821e+01 7.380582195032744153e+00 -1.283042962096900226e+02 -3.204396177010286806e+01 -2.329777423918141821e+01 -3.204396177010286806e+01 -8.736789013440004226e+01