9.977790999999999855e+00 8.799880999999999176e+00 6.461921000000000248e+00 1.396319000000000088e+01 4.041830000000000034e+00 1.884181000000000106e+00 8.683280999999999139e+00 7.161131000000000135e+00 7.765920999999999630e+00 1.557169099999999951e+01 1.101108999999999938e+01 1.144139099999999942e+01 2.278181000000000012e+00 1.892930999999999919e+00 3.212111000000000161e+00 1.092049100000000017e+01 6.383181000000000438e+00 1.456349100000000085e+01 2.608521000000000090e+00 1.133118999999999943e+01 9.948810000000000153e-01 5.123720999999999748e+00 6.044270000000000032e+00 9.996790000000000731e+00 1.130560999999999927e+00 1.209718999999999944e+01 1.516539099999999962e+01 1.810801000000000105e+00 8.484599999999999920e-01 9.256489999999999441e+00 1.337390000000000079e+00 1.208469099999999941e+01 6.998620999999999981e+00 3.736800999999999817e+00 3.687790999999999819e+00 3.868361000000000161e+00 1.292309099999999944e+01 9.927490999999999843e+00 5.900670999999999999e+00 2.443471000000000171e+00 2.501291000000000153e+00 1.084629100000000079e+01 1.053708999999999918e+01 9.871400000000000174e-01 1.385098999999999947e+01 4.147180999999999784e+00 3.259449999999999847e-01 1.521799099999999960e+01 6.937541000000000402e+00 4.237781000000000020e+00 9.671561000000000519e+00 5.173540000000000028e+00 8.602779999999999205e+00 5.897320999999999813e+00 1.411869000000000085e+01 6.838729999999999976e+00 1.168959100000000007e+01 1.084979099999999974e+01 1.209029100000000057e+01 1.255369100000000060e+01 7.743171000000000248e+00 1.173859099999999955e+01 1.542329100000000075e+01 4.517790999999999890e+00 7.570121000000000322e+00 1.365019099999999952e+01 6.282410999999999746e+00 7.984801000000000037e+00 1.564419099999999929e+01 4.317561000000000426e+00 7.952100999999999864e+00 1.127509000000000050e+01 1.532111000000000001e+00 1.123099099999999950e+01 9.423180999999999585e+00 1.431969100000000061e+01 1.570799099999999981e+01 1.214499099999999920e+01 6.823999999999999511e-02 1.212729099999999960e+01 3.627530999999999839e+00 1.201379099999999944e+01 1.198399099999999962e+01 4.459550000000000125e+00 1.406489099999999937e+01 1.267239099999999929e+01 8.785159999999999414e+00 1.558409100000000080e+01 4.954850999999999672e+00 1.062179099999999998e+01 8.432430999999999344e+00 1.560258999999999929e+01 1.929680999999999980e+00 6.033360000000000056e+00 1.247749100000000055e+01 2.132420999999999900e+00 1.068729000000000084e+01 6.696640999999999622e+00 3.094279999999999919e+00 1.423279100000000064e+01 1.339359100000000069e+01 1.106528999999999918e+01 1.049349100000000057e+01 5.900280999999999665e+00 8.692600000000000549e+00 2.670040999999999887e+00 6.335640999999999856e+00 1.363709000000000060e+01 8.929940999999999462e+00 1.443939100000000053e+01 4.330780999999999992e+00 1.496189099999999961e+01 1.087379100000000065e+01 1.839070999999999900e+00 1.374399099999999940e+01 1.382278999999999947e+01 3.706351000000000173e+00 4.341070000000000206e+00 1.445018999999999920e+01 1.090640000000000054e+00 1.333519000000000077e+01 6.984690000000000065e-01 1.396099000000000068e+01 5.992710999999999899e+00 6.860031000000000212e+00 7.727500000000000036e+00 3.067059999999999786e-01 5.226570999999999856e+00 1.250861000000000001e+00 1.248579100000000075e+01 7.656391000000000169e+00 1.321649099999999954e+01 1.310439000000000043e+01 2.343170999999999893e+00 3.568051000000000084e+00 6.685140999999999778e+00 9.864461000000000368e+00 1.840381000000000045e+00 1.496289100000000083e+01 4.174510999999999861e+00 8.448961000000000610e+00 6.512870999999999633e+00 3.382601000000000191e+00 7.098100999999999772e+00 1.005749100000000062e+01 4.247061000000000419e+00 1.932600000000000096e+00 4.038850000000000051e+00 1.038569099999999956e+01 1.015489099999999922e+01 6.264560999999999602e+00 3.575759999999999827e+00 4.594770999999999717e+00 1.003659099999999960e+01 8.892701000000000633e+00 3.976599999999999913e+00 1.952180999999999944e+00 2.364370000000000083e-01 7.036921000000000426e+00 7.217470999999999748e+00 1.262719000000000058e+01 4.487981000000000442e+00 1.452579099999999990e+01 5.181620000000000115e-01 6.421571000000000140e+00 1.823881000000000085e+00 4.228190999999999811e+00 2.809619999999999784e+00 8.583100999999999203e+00 7.221910000000000274e+00 1.495489000000000068e+01 1.162259099999999989e+01 7.593729999999999647e-01 1.581461499999999987e+01 5.403300999999999910e+00 1.432189100000000082e+01 6.474810999999999872e+00 9.771739999999999426e+00 6.061270999999999631e+00 1.127419000000000082e+01 8.456421000000000632e+00 4.082710999999999757e+00 1.151679099999999956e+01 1.755961000000000105e+00 8.403730000000000366e-01 1.519079100000000082e+01 7.627159999999999940e+00 1.423339099999999924e+01 1.568519099999999966e+01 5.957111000000000267e+00 1.219938999999999929e+01 1.369168999999999947e+01 3.103501000000000065e+00 1.062999100000000041e+01 5.637770999999999866e+00 8.533899999999999153e+00 1.962220999999999993e+00 1.339819100000000063e+01 1.443648999999999916e+01 1.224689099999999975e+01 1.548959100000000078e+01 1.533189100000000060e+01 1.379329099999999997e+01 6.740560000000000329e+00 1.577959099999999992e+01 4.801509999999999945e-01 1.484108999999999945e+01 1.062839100000000059e+01 1.052929100000000062e+01 9.360830999999999236e+00 9.462500999999999607e+00 1.040849000000000046e+01 1.135779100000000064e+01 7.289309999999999956e-01 8.455249999999999710e-01 1.099588999999999928e+01 7.016380999999999979e+00 1.274299000000000071e+01 7.828991000000000255e+00 6.315750999999999671e+00 6.357319999999999638e-01 7.475770999999999944e+00 2.684511000000000092e+00 1.517829000000000050e+01 3.179851000000000205e+00 9.787570000000000547e+00 1.043979099999999960e+01 5.249920000000000142e-01 1.195879000000000048e+01 8.891130000000000422e+00 1.095010000000000011e-01 3.300120999999999860e+00 1.450409100000000073e+01 5.472590000000000288e+00 1.236819099999999949e+01 1.112869000000000064e+01 1.463439100000000082e+01 1.054749100000000084e+01 1.112238999999999933e+01 2.735799999999999788e+00 9.176750999999999436e+00 8.241220999999999464e+00 1.270729000000000042e+01 2.797419999999999907e-01 2.300549999999999873e+00 7.250539999999999985e+00 2.200569999999999915e+00 1.122549000000000063e+01 3.377330999999999861e+00 1.299639099999999914e+01 5.720369999999999955e+00 7.542910000000000004e+00 6.504590000000000316e+00 1.373419099999999915e+01 1.164389099999999999e+01 8.410819999999999297e+00 1.513758999999999943e+01 1.147669100000000064e+01 1.294379099999999916e+01 1.581689000000000078e+01 2.254220999999999808e+00 6.651340000000000252e+00 2.804980000000000251e-01 1.431359100000000062e+01 1.030479099999999981e+01 1.079010999999999942e+00 7.364770000000000039e+00 1.523549099999999967e+01 8.311640000000000583e+00 1.421929999999999916e+00 8.416410000000000835e+00 4.676600000000000201e-01 9.068151000000000295e+00 1.194369099999999939e+01 4.492661000000000016e+00 2.201700000000000046e-01 8.199809999999999377e+00 2.735520000000000174e+00 3.068160999999999916e+00 1.017089099999999924e+01 1.445409100000000002e+01 6.237381000000000064e+00 1.243089100000000080e+01 1.584081000000000072e+00 5.901260999999999868e+00 9.625880000000000436e+00 1.254698999999999920e+01 7.846960000000000157e+00 1.300128999999999913e+01 7.491520999999999653e+00 1.934590999999999950e+00 3.546901000000000082e+00 1.160809000000000069e+01 1.487419099999999972e+01 6.073940000000000339e+00 1.180519100000000066e+01 9.760160000000000835e+00 1.285708999999999946e+01 1.051359000000000066e+01 8.382429999999999382e+00 1.877191000000000054e+00 4.751250999999999891e+00 1.191719100000000076e+01 1.233079099999999961e+01 7.877850999999999715e+00 6.466770999999999603e+00 1.034589999999999899e+00 7.197700000000000209e+00 1.550629099999999916e+01 1.054749100000000084e+01 1.468299099999999946e+01 1.269279000000000046e+01 6.883770000000000167e+00 1.021079100000000039e+01 4.127760000000000318e+00 1.422839100000000023e+01 9.009700999999999738e+00 1.201459099999999935e+01 1.373219100000000026e+01 1.438238999999999912e+01 1.192109100000000055e+01 5.639779999999999793e-01 1.726830000000000087e+00 1.511209099999999950e+01 1.457469099999999962e+01 8.314100000000000656e-02 1.450219000000000058e+01 2.513491000000000142e+00 1.070238999999999940e+01 2.111409999999999787e+00 1.342619099999999932e+01 1.155929000000000073e+01 9.130921000000000731e+00 3.821839999999999904e+00 9.597041000000000821e+00 6.020851000000000397e+00 1.446050999999999975e+00 1.600470000000000059e+00 6.854659999999999975e+00 5.513640999999999792e+00 1.569849100000000064e+01 6.560800999999999661e+00 1.001028999999999947e+01 1.164729099999999917e+01 1.163279099999999922e+01 1.127359099999999970e+01 1.349709099999999928e+01 1.238809099999999930e+01 1.181109099999999934e+01 5.251530999999999949e+00 8.353859999999999175e+00 3.023270999999999820e+00 1.212950999999999890e+00 1.505709099999999978e+01 1.441239099999999951e+01 7.313481000000000343e+00 2.100731000000000126e+00 2.857210999999999945e+00 4.580010999999999832e+00 3.589770999999999823e+00 6.104591000000000101e+00 1.976331000000000060e+00 7.453051000000000315e+00 9.843579999999999330e+00 2.038361000000000089e+00 1.353869100000000003e+01 3.932050999999999963e+00 9.050681000000000864e+00 1.051819099999999985e+01 5.452649999999999997e-01 5.607240000000000002e-01 9.558661000000000740e+00 1.755451000000000095e+00 5.665259999999999962e+00 1.281939099999999954e+01 1.347789099999999962e+01 1.000909000000000049e+01 7.287100999999999829e+00 1.558269100000000051e+01 1.088659099999999924e+01 3.142450000000000188e+00 6.468401000000000067e+00 3.838871000000000144e+00 5.954000999999999877e+00 1.032169099999999951e+01 1.131789099999999948e+01 1.413121000000000071e+00 1.298339099999999924e+01 8.867290000000000560e+00 1.272479000000000049e+01 8.965101000000000653e+00 1.582039100000000076e+01 1.028189000000000064e+01 1.055349099999999929e+01 9.186341000000000534e+00 4.594849999999999768e-01 9.418640999999999153e+00 7.730790999999999968e+00 3.426911000000000040e+00 2.965940999999999939e+00 1.091179099999999913e+01 9.579910999999999177e+00 1.525669000000000075e+01 1.516679000000000066e+01 6.470040000000000013e+00 6.481231000000000186e+00 8.885521000000000669e+00 8.914630000000000054e-01 1.052319100000000063e+01 9.827180999999999500e+00 3.103241000000000138e+00 1.578139099999999928e+01 1.251369000000000042e+01 1.491769099999999959e+01 7.268260999999999861e+00 2.693010999999999822e+00 3.970530999999999811e+00 1.039519100000000051e+01 3.542080000000000228e-01 1.540999000000000052e+01 8.479760000000000630e+00 7.835700000000000109e+00 1.382339100000000087e+01 5.346960000000000157e+00 6.901450000000000085e-01 1.441729100000000052e+01 8.365449999999999164e+00 1.312489000000000061e+01 8.108211000000000723e+00 5.126770999999999745e+00 8.015290999999999499e+00 1.495939000000000085e+01 3.990470999999999879e+00 6.414100000000000357e+00 1.345119099999999968e+01 6.616760000000000197e+00 1.150349100000000035e+01 8.515670999999999324e+00 3.523780000000000245e-01 6.045161000000000229e+00 1.376840000000000008e-01 6.210220999999999769e+00 5.286610999999999727e+00 1.030009000000000086e+01 1.476619099999999918e+01 5.716930999999999763e+00 1.148499100000000084e+01 1.561029999999999918e+00 1.234139099999999978e+01 7.176399999999999446e-01 1.496549100000000010e+01 1.228459100000000070e+01 1.156029099999999943e+01 1.488639000000000046e+01 1.300539099999999948e+01 3.893060999999999883e+00 9.214529999999999665e-01 1.156898999999999944e+01 8.288341000000000847e+00 7.578270000000000284e-01 1.321688999999999936e+01 6.382780000000000342e+00 2.173239999999999839e+00 7.428270999999999624e+00 1.458229099999999967e+01 7.997600000000000264e+00 1.512889099999999942e+01 7.091239999999999766e-01 1.143038999999999916e+01 1.696760000000000046e+00 6.883230000000000182e+00 1.423780999999999963e+00 2.932221000000000188e+00 2.671079999999999899e+00 1.209619099999999925e+01 7.245940000000000047e+00 2.892780999999999825e+00 5.012590000000000323e+00 6.130410999999999611e+00 8.480320000000000746e+00 1.112900999999999918e+00 1.537909100000000073e+01 1.512989100000000064e+01 6.797761000000000386e+00 3.934620999999999924e+00 8.301769999999999428e+00 1.763099999999999890e+00 1.479680000000000106e+00 1.152179100000000034e+01 1.366900999999999922e+00 1.230189099999999947e+01 3.919510999999999967e+00 7.874340000000000117e+00 1.373809100000000072e+01 5.008111000000000423e+00 4.694021000000000221e+00 8.339631000000000682e+00 1.251509000000000071e+01 3.358299999999999841e+00 2.413161000000000111e+00 3.941600999999999910e+00 1.421649099999999954e+01 5.076500000000000234e+00 7.662530000000000285e+00 1.291259100000000082e+01 4.860390999999999906e+00 1.048500999999999905e+00 7.313420999999999950e+00 6.935430000000000206e+00 8.015840000000000742e+00 2.461571000000000176e+00 1.164899100000000054e+01 6.296289999999999942e+00 1.111869000000000085e+01 8.387470000000000425e+00 7.063150000000000261e+00 9.741149999999999309e+00 6.627181000000000211e+00 1.527159100000000080e+01 5.358560999999999908e+00 7.663510999999999740e+00 6.818520000000000358e+00 1.514489099999999944e+01 4.324900999999999662e+00 1.294361000000000095e+00 8.700860999999999734e+00 1.463589100000000087e+01 2.830439999999999845e+00 2.895130000000000203e-01 3.549049999999999816e+00 7.911271000000000164e+00 1.012099100000000007e+01 1.555709099999999978e+01 7.004059999999999953e+00 9.754291000000000267e+00 9.395180999999999116e+00 5.249750999999999834e+00 5.025970000000000049e+00 4.079390000000000072e+00 4.244299999999999962e+00 1.321649099999999954e+01 1.450199100000000030e+01 2.625081000000000220e+00 1.050600999999999896e+00 4.794740000000000002e+00 1.086018999999999934e+01 1.026268999999999920e+01 1.328769100000000059e+01 6.773620000000000196e+00 5.160781000000000063e+00 1.111529099999999914e+01 1.031809100000000079e+01 1.269139099999999942e+01 7.837360000000000326e+00 5.270040000000000280e-01 1.011168999999999940e+01 1.472229100000000024e+01 4.824741000000000390e+00 1.237259000000000064e+01 1.089669100000000057e+01 5.192150999999999961e+00 1.341319099999999942e+01 1.103920999999999930e+00 2.991699999999999804e+00 9.223380999999999830e+00 1.464070999999999900e+00 8.421651000000000664e+00 1.178579099999999968e+01 9.811310000000000642e+00 8.990610999999999464e+00 4.261480999999999852e+00 6.822400000000000020e+00 1.061579099999999976e+01 1.326839099999999938e+01 4.660739999999999883e-01 5.807370999999999839e+00 2.582479999999999887e+00 1.447209100000000070e+01 4.235940000000000261e+00 8.050580999999999321e+00 2.689611000000000196e+00 1.229139100000000084e+01 8.141840999999999440e+00 1.293459099999999928e+01 1.575829099999999983e+01 1.414669100000000057e+01 1.314639099999999949e+01 7.278090999999999866e+00 1.440138999999999925e+01 8.090571000000000623e+00 1.100219099999999983e+01 1.104809099999999944e+01 1.223678999999999917e+01 3.423601000000000116e+00 6.118050000000000210e+00 1.344098999999999933e+01 7.258100999999999914e+00 2.481660000000000199e+00 4.289799999999999863e-02 8.325860000000000483e+00 6.076440999999999981e+00 1.302599099999999943e+01 1.266599000000000075e+01 1.370130000000000070e+00 5.227551000000000059e+00 2.099101000000000106e+00 2.690170999999999868e+00 1.989171000000000022e+00 9.615531000000000716e+00 7.222650999999999932e+00 3.410480000000000178e-01 8.472960000000000491e+00 1.339209100000000063e+01 8.435660000000000380e-01 1.255869099999999960e+01 2.223209999999999908e+00 1.189769000000000077e+01 1.443449099999999952e+01 1.146319000000000088e+01 7.469210999999999601e+00 1.405169000000000068e+01 7.784530000000000172e+00 1.035190000000000055e+00 1.402749099999999949e+01 6.997340000000000337e+00 1.145409000000000077e+01 1.432959100000000063e+01 1.443839099999999931e+01 1.373709099999999950e+01 9.643430999999999642e+00 1.044628999999999941e+01 5.544840999999999909e+00 2.615171000000000134e+00 1.011079100000000075e+01 6.103780999999999679e+00 9.969991000000000270e+00 6.248190000000000133e-01 8.170241000000000753e+00 6.175289999999999946e-01 7.467041000000000039e+00 9.574571000000000609e+00 3.043921000000000099e+00 9.584981000000000861e+00 6.203950999999999993e+00 7.603140999999999927e+00 1.321238999999999919e+01 1.208239099999999944e+01 1.510629100000000058e+01 1.937251000000000056e+00 5.745609999999999884e-01 3.249601000000000184e+00 1.248179099999999941e+01 9.921630000000000393e+00 1.513339099999999959e+01 1.102039100000000005e+01 8.228299999999999503e-02 1.294339000000000084e+01 6.142500000000000071e+00 1.113369100000000067e+01 1.702490999999999977e+00 1.365208999999999939e+01 3.495080000000000187e+00 3.105650999999999939e+00 9.790190000000000836e+00 7.283510999999999846e+00 1.194289099999999948e+01 7.183080000000000354e+00 7.065090999999999788e+00 1.550639100000000070e+01 4.733100000000000307e+00 1.161369099999999932e+01 1.388608999999999938e+01 8.684850000000000847e+00 9.616160000000000707e+00 1.225869100000000067e+01 5.363059999999999938e+00 1.356269099999999916e+01 1.342621000000000064e+00 1.279119099999999953e+01 8.654420999999999253e+00 5.210751000000000133e+00 8.884399999999999409e+00 3.762370000000000214e+00 2.436570999999999820e+00 8.975091000000000818e+00 8.510540000000000660e+00 7.258720000000000283e+00 7.436160000000000103e+00 1.118329100000000054e+01 4.882230999999999987e+00 4.234261000000000053e+00 1.484539099999999934e+01 1.569159100000000073e+01 1.268609099999999934e+01 1.320799099999999981e+01 4.541110999999999898e+00 1.249699099999999952e+01 1.446220999999999979e+00 1.490299100000000010e+01 1.327399100000000054e+01 6.455110000000000348e+00 1.270419000000000054e+01 4.472190000000000332e+00 1.370919100000000057e+01 5.689390999999999643e+00 1.472139100000000056e+01 4.184320999999999735e+00 9.745200000000000529e+00 5.889611000000000374e+00 9.278570999999999458e+00 4.842581000000000024e+00 8.203139999999999432e+00 3.873219999999999885e+00 1.013699000000000083e+01 3.357419999999999849e+00 1.459769099999999931e+01 2.033720000000000194e+00 1.204559000000000069e+01 3.351370000000000182e-01 1.180471000000000048e+00 2.899449999999999861e+00 1.560549100000000067e+01 6.171060999999999908e+00 1.259989099999999951e+01 2.591810000000000169e+00 4.963799999999999990e+00 1.294949100000000008e+01 6.843631000000000242e+00 6.886560000000000237e+00 6.618770999999999738e+00 1.475709100000000085e+01 1.489598999999999940e+01 9.247130000000000072e-01 1.084529099999999957e+01 1.080119099999999932e+01 1.505219100000000054e+01 1.007159000000000049e+01 1.214079000000000086e+01 1.478689100000000067e+01 1.797651000000000110e+00 6.983840999999999966e+00 6.972360000000000113e+00 1.500339100000000059e+01 1.182509100000000046e+01 1.145649099999999976e+01 4.998851000000000155e+00 1.477489100000000022e+01 2.762640000000000207e+00 3.664000999999999841e+00 1.180528999999999940e+01 1.038639099999999971e+01 1.183959100000000042e+01 8.743819999999999482e+00 8.415480000000000516e+00 1.219630999999999910e+00 2.439550999999999803e+00 9.094760000000000844e+00 1.459948999999999941e+01 1.258129100000000022e+01 3.201661000000000090e+00 1.085199000000000069e+01 4.327730999999999995e+00 1.558579100000000039e+01 3.495090000000000141e-01 1.169419100000000000e+01 1.452309100000000086e+01 1.188949099999999959e+01 1.135680999999999941e+00 9.557731000000000421e+00 1.011149099999999912e+01 1.006138999999999939e+01 1.147228999999999921e+01 1.164709099999999964e+01 1.357169099999999951e+01 6.267390999999999934e+00 1.279669099999999915e+01 3.509609999999999896e+00 1.093209000000000053e+01 3.631241000000000163e+00 9.071730000000000071e-01 1.475709100000000085e+01 9.616149999999999309e+00 1.585329999999999906e+00 9.218540000000000845e+00 5.030210000000000292e+00 1.197199099999999916e+01 3.718030000000000168e+00 1.113929000000000080e+01 1.864699999999999969e-01 8.443580000000000751e+00 1.062698999999999927e+01 1.942720000000000002e-01 6.684200999999999837e+00 1.296458999999999939e+01 1.037969099999999933e+01