-7.786528985330347496e+04
-7.784933812369944644e+04
-7.783702064436337969e+04
-7.785896997351683967e+04
-7.785312708560390456e+04
-7.786341052658861736e+04
-7.782177948229285539e+04
-7.785974708582027233e+04
-7.781300066581633291e+04
-7.786885961834044429e+04
-7.785009707254188834e+04
-7.783003151103013079e+04
-7.786066992365750775e+04
-7.786790231033576129e+04
-7.782975794690402108e+04
-7.786348330258304486e+04
-7.784152305890110438e+04
-7.785996285598172108e+04
-7.780803768771613250e+04
-7.785340606328210561e+04
-7.785885179706993222e+04
-7.784076507411492639e+04
-7.784979783279966796e+04
-7.785203849428487592e+04
-7.785537837484956253e+04
-7.780074311349960044e+04
-7.785648562904445862e+04
-7.784640796907158801e+04
-7.780719321141926048e+04
-7.786216991277452325e+04
-7.783355474058991240e+04
-7.784561056929157348e+04
-7.782865366158357938e+04
-7.785441690057904634e+04
-7.782615142605752044e+04
-7.782835769794811495e+04
-7.784020561389520299e+04
-7.785755165624716028e+04
-7.781984657477446308e+04
-7.779662524087651400e+04
-7.781580701868385950e+04
-7.783115301368830842e+04
-7.784185931704657560e+04
-7.784361742390559812e+04
-7.782981561884710391e+04
-7.783507004380912986e+04
-7.782807177970293560e+04
-7.786542894107065513e+04
-7.783359071555623086e+04
-7.783127745671107550e+04
-7.785568632057048671e+04
-7.786432914955183514e+04
-7.780831419262701820e+04
-7.781790482790187525e+04
-7.780702230210602283e+04
-7.784582954498895560e+04
-7.786182192055111227e+04
-7.784631376940627524e+04
-7.784988594292421476e+04
-7.781948582989115675e+04
-7.785913767322807689e+04
-7.785292686657396553e+04
-7.785124515358667122e+04
-7.784560274777766608e+04
-7.781678603838787240e+04
-7.782297696448980423e+04
-7.783586515013623284e+04
-7.786313529747007124e+04
-7.784155297611029528e+04
-7.783435559850996651e+04
-7.782682784090623318e+04
-7.786763243360604974e+04
-7.782020237581586116e+04
-7.783740531040207134e+04
-7.785343029689551622e+04
-7.781870069456796045e+04
-7.785509725974535104e+04
-7.785429482372142957e+04
-7.783890753618102462e+04
-7.786726646820937458e+04
-7.784860463357348635e+04
-7.785153133513929788e+04
-7.783268181144070695e+04
-7.780888964735312038e+04
-7.785879684629269468e+04
-7.783611648876061372e+04
-7.780399895197110891e+04
-7.784266520078491885e+04
-7.785595404915559629e+04
-7.785271651054108224e+04
-7.786270965808921028e+04
-7.785077293752065452e+04
-7.783554659527540207e+04
-7.786431530107298749e+04
-7.784490642754532746e+04
-7.782101668053674803e+04
-7.783551278149383143e+04
-7.784442709323049348e+04
-7.781140034996088070e+04
-7.783272902950784191e+04
-7.780480937668375554e+04
-7.780777052526612533e+04
-7.786393589226502809e+04
-7.781031073092280712e+04
-7.782655247495677031e+04
-7.785326371562355780e+04
-7.785878440915473038e+04
-7.782926886214503611e+04
-7.786621252035665384e+04
-7.783498769197759975e+04
-7.785511064924218226e+04
-7.780713366692200361e+04
-7.785857110105814354e+04
-7.783738048566831276e+04
-7.785262041989863792e+04
-7.785933035097680113e+04
-7.783286188143245818e+04
-7.784588893497228855e+04
-7.784169130079851311e+04
-7.784194222261136747e+04
-7.784037091842533846e+04
-7.782904903973930050e+04
-7.786500985293314443e+04
-7.782082222325511975e+04
-7.783549992712665698e+04
-7.783966255464669666e+04
-7.786267914617006318e+04
-7.784187699778653041e+04
-7.785107300246813975e+04
-7.780720332322850300e+04
-7.785358699023349618e+04
-7.785223679891506617e+04
-7.785187754867837066e+04
-7.786340446480322862e+04
-7.783831978397585044e+04
-7.784634877221428906e+04
-7.786596135123034765e+04
-7.782673821952806611e+04
-7.784599142587435199e+04
-7.786336390570500225e+04
-7.786403215072402963e+04
-7.785010481065571366e+04
-7.785099705478605756e+04
-7.786663319502539525e+04
-7.782594343619077699e+04
-7.783206784033149597e+04
-7.783265377749600157e+04
-7.785378285129091819e+04
-7.782243475489183038e+04
-7.785940533630183199e+04
-7.780538539723485883e+04
-7.785149884068295069e+04
-7.783325794925082300e+04
-7.782114938471102505e+04
-7.784269808930512227e+04
-7.782504878591680608e+04
-7.782062137118043029e+04
-7.782620056753001700e+04
-7.786325453596131410e+04
-7.785516293531020347e+04
-7.780874232758321159e+04
-7.786844894668339111e+04
-7.786253774039055861e+04
-7.783870380009607470e+04
-7.784163478539827338e+04
-7.784813119700590323e+04
-7.784742834536104056e+04
-7.782968975974428758e+04
-7.784942073631510721e+04
-7.779835520535099204e+04
-7.785359748948145716e+04
-7.786661160541855497e+04
-7.784730427398816391e+04
-7.781787085040968668e+04
-7.782093115874736395e+04
-7.786753161729920248e+04
