2.154600053878300281e-01 -5.312722323384092005e-02 -1.110310423155577597e+00 -1.336220421095946742e+00 2.552760608126817488e+00 -1.442346826615612532e+00 -3.115784424469833613e+00 3.726221443908721564e+00 -2.213059745509436294e+00 1.451638279987909730e+00 4.680284372375457913e+00 -2.288611618149028359e+00 -9.647628322672108236e-01 1.326061477445323877e+00 9.640223544955517365e-01 -9.747227725167004753e-01 -4.454678278853875462e+00 3.691412817992647089e+00 -1.970800101214969402e+00 3.536589714572900611e+00 -1.251199688951264211e+00 1.419747856401116781e+00 -8.572043221683293135e-01 -5.944074240327626768e+00 4.530995826078188848e+00 1.724978450306417388e+00 4.853222441725765002e+00 3.885860223947625425e+00 4.375971662374610327e-01 -2.978207768260971999e+00 1.944840184670221017e+00 -7.152552475619558536e-02 -8.283262032942994013e-01 3.225287202939994824e+00 -9.930202867868014316e-01 1.812351227817467159e+00 1.042767537525423477e-01 -2.151508559181623426e+00 -1.023494546635296404e-01 1.584987528029542514e-01 4.297748413329622874e-01 2.381880449916913278e+00 6.116757770443925074e-02 -3.594813378914320179e+00 3.333330623135177806e+00 2.135063782002694754e+00 -2.615891994588177560e-01 -3.431788969952774160e+00 1.224158366327488423e+00 1.118899451086148522e+00 -3.373912404566819845e+00 -1.048471273249897751e+00 5.757910415222408318e+00 -2.298962880332012571e+00 1.155032195239738269e-01 -3.702322009607749709e-01 -6.305574460010245907e-01 2.237970651877667638e-01 5.061123917415248918e+00 -1.144439249339614939e+00 1.011946178721463419e+00 -2.922015789805542330e+00 -1.643640052413714692e+00 5.313623238006276672e+00 5.029843873769401341e+00 2.990027130470405581e+00 -1.435388392444715944e+00 2.869196070535210197e+00 1.997063407957828218e+00 -4.541057067800607361e-01 5.195126225713831758e+00 -9.040385127844173807e-01 3.186496966339228631e+00 -2.770993805613645833e+00 4.392958428144739358e+00 7.514409564450463819e-02 -1.261778236672493891e+00 -2.773942346962738448e+00 -4.833838893390564051e-01 3.383520617874771208e-01 -1.254024817338413311e-01 4.907752973181035427e-01 3.426222531148461758e+00 -1.253117732068131041e+00 9.153318272435682079e-01 4.272797911969433926e+00 -3.622108726551428237e+00 -3.752211699473281037e+00 6.908297655107009660e-02 1.039269294275009026e+00 -5.392884184372936929e-01 2.471421181792765154e+00 1.551040735964371198e+00 -2.148564645818603847e+00 7.642836177972588407e-01 1.003556668412700636e+00 -2.321629213454902418e-01 5.272370398594070195e+00 -1.294182880934050095e+00 3.156953960132729886e+00 2.148815071287213663e-01 -1.480317909681481137e-01 2.093940526200527064e+00 -1.601551604405016649e+00 -2.878431988074632741e+00 -2.808221839804481590e+00 1.863115092830096131e+00 1.183256225415469487e+00 -2.215733693018205219e+00 -6.239785066881035069e-01 -4.555740124947796232e+00 1.354440802264833321e+00 4.690088503760495020e-01 3.026175301244238725e+00 -2.033758709529609021e+00 -5.023176488500420867e+00 1.260191351670174154e+00 -2.151900395335793192e-01 -2.694417091169250433e+00 3.873228393072066122e+00 1.695975890029094879e+00 2.415626181698252495e+00 8.673365263438647110e-01 -2.017983447669221775e+00 -5.093119242019694681e-01 1.691700145118438581e+00 8.450640862578435719e-01 8.685074068203005870e-01 -1.959218308957276555e+00 4.022707201018998369e+00 -1.862079452391123269e+00 -2.835732131683641022e+00 6.087781435421014686e-01 -1.073553415102824982e+00 2.768667985501691575e+00 8.596484130354791198e-01 -1.895993848553784167e+00 -3.195552392421809884e-01 4.452318005956711344e-01 8.240653707832111818e-01 -2.760491362552281114e+00 -9.255447640650413810e-01 -6.177449694024208071e+00 7.892899635227262678e+00 2.223346730108075153e+00 5.074057081606220265e-01 -6.973454556806263360e-01 -3.001896886305966405e-01 -1.925249405403090197e+00 6.688314050443288084e-01 -4.128883485944116472e-01 -9.835611974745313013e-01 1.086158506503296817e+00 -1.943719183599237121e+00 1.171665177185630791e+00 -7.207985464359037975e-01 3.334342095202437850e+00 3.033090026657780047e+00 8.603199852367199307e-01 1.257644930888746626e-01 -2.115953284845792925e+00 -6.675875052320764391e-01 -1.571647615284833988e+00 -3.580199741558222626e-01 1.578297517050872290e-01 1.483886601164337814e-02 -1.368666203011484006e+00 3.599992095329860864e-01 -3.371793301166120305e+00 -1.301397397000978895e+00 1.952792607405434921e+00 -5.173903310025002034e-01 -1.169085332060343374e+00 1.372048746610076697e-01 6.827127921595630422e-01 2.382091280393566490e-01 1.279135241328452910e+00 -6.067351448012671122e-01 2.263858063307274460e+00 4.981307098499171415e-02 -1.306687185082268332e+00 -7.139265527604350403e+00 -7.294389964339508259e-01 -2.942345504182307891e+00 -8.246443832629946069e-01 -4.476064716717278458e-01 -1.078307385241011440e+00 -9.143280684864303343e-01 -1.387903198454377485e+00 -5.076427638916879426e-01 -2.659040251407562838e+00 7.648919408555038268e-01 1.445283026668510606e+00 -3.805510672412492634e-01 8.417021114862413556e-02 -2.981157852272088959e+00 1.435270121689520284e+00 -2.831476955599975032e+00 4.761125518875664930e+00 -1.424295624048722786e+00 4.066622160864455715e+00 -1.698725427977054059e+00 -2.858120785642158657e-01 6.861066486130004138e-01 2.878083860677818073e+00 -4.000734551586364596e-01 1.556912621849492862e+00 1.175493035888568460e-01 2.116596574909922257e+00 -2.967529975949513066e+00 -1.679796450718344047e+00 -4.104334590930918125e-01 1.803118909822767568e+00 -1.708750674252238699e+00 -8.236647928775706617e-01 -1.999981096066435038e+00 3.288329629224620909e+00 -3.049426817495008990e+00 3.887073784740067151e+00 -2.621399298014892021e-01 1.917025988372276668e+00 -2.079076463375820194e-01 4.631755310415350269e-01 1.004177846987814871e+00 -3.418234112966014759e+00 -4.854047765908759415e-01 -1.840089319455547212e+00 1.500789548964481135e+00 -3.469278742467064802e+00 2.538096062923918872e+00 4.921302687961046085e-01 -1.535015562856048843e-01 4.254209348797417523e-01 -2.286888978888570900e+00 -1.584825034296317270e+00 1.828069925403630558e+00 -2.487627360578604119e+00 1.126872442648352513e+00 6.217010233195769953e-01 -2.830651117196305022e-01 -3.238063015604488282e+00 1.430521293758081791e+00 -7.384275738288126334e-01 -3.235095962311104190e-01 -1.486812516803741047e-01 -3.352718799456452185e-03 2.403203638637321227e+00 1.035071710906916520e+00 2.705399816340844588e+00 -1.410403438299318690e+00 -3.416116038006665079e+00 4.128284418858017446e+00 9.616903637355004308e-01 -2.003060763687592338e+00 -2.632468412259846069e+00 -1.103742796697501305e+00 4.153252403721147124e-01 -1.929037154893396555e-01 -1.472747552907616164e+00 1.189370309238404477e+00 -5.617218095945155643e-01 -5.557337098368975159e-01 -2.247106810606186222e+00 2.086115630192654891e+00 -2.071224827892860443e+00 -1.965047514526392813e+00 2.153411689898922621e+00 -2.597225784094270989e-02 5.682740094323491808e-01 -1.342455346777451097e-01 1.367593024463253037e+00 1.725654136273056416e+00 -3.108463978943903916e-01 -3.660207850565312615e+00 2.553697003975561319e-01 1.090713473240349785e-01 2.161978092119803740e+00 -4.587388864817451228e+00 -4.792684784347910565e+00 2.181529790615652220e-01 2.929326465138651692e+00 -1.233511011960082726e+00 -4.911018274465781541e-01 -2.087021172800912483e-01 -2.137332523619750180e-01 -2.832774848583077265e-01 3.080995338939400252e+00 4.377935985352205961e-01 7.479483696220543543e-01 -4.762845587032748518e-01 -1.344966286332320182e+00 1.360836679017538797e+00 1.704582401462607644e+00 -8.666304499353470803e+00 3.883092688276050364e+00 3.253757544818937308e+00 -1.281264629142647493e+00 8.985492070813197452e-02 -2.076320240559089703e-01 9.561306097999600073e-01 1.790092671689664794e+00 -3.790043428736288966e+00 -2.431555709761068496e+00 -2.444215308553065125e+00 4.435733874974921775e+00 -3.084566087304956294e+00 6.325413093642612283e-01 -2.803202017577442473e-01 2.458004135946842528e+00 -1.152953201051670318e+00 -3.637602709702719928e+00 -1.864371848159217526e+00 -8.791744004975896587e-01 -4.556477517395407517e+00 2.707108057422408010e+00 -1.679408728329572442e+00 4.108283805713099368e-01 -7.615649330897854563e-01 2.228804668350012452e+00 1.580111687591437386e+00 -1.445165784354664473e-01 7.766974191067187450e-01 -1.054094790549108485e+00 -3.426746007795370974e-01 -3.376965846933564386e+00 -2.514076300985052526e-01 -8.498597082706856876e-01 -5.381021113406149192e-01 -1.299850106990616094e+00 3.873267988064023282e+00 -7.272242479877454313e-01 -1.273439733134775098e+00 2.108212206807906497e-01 2.087756508365824271e+00 -3.681217364674115977e+00 3.004914847446151782e+00 -1.853911571193183505e+00 -3.455285255244732179e-01 1.378630771247046360e-01 1.544400604391153342e+00 -5.812904773726315089e-01 1.160365177857707986e+00 -7.293644344361100984e-01 -1.015012476605076541e+00 8.131731484503756935e-02 -1.664003191134339810e+00 2.079537719321082889e+00 4.754144973215753689e-01 -6.452667284026276651e-01 1.976679186189538084e+00 -3.830512081619482645e-01 2.764381441956865082e+00 -8.749449354476618312e-01 1.016696549314926257e+00 4.345591504909596670e-01 1.295480773917152773e+00 -1.072775399221908454e+00 -5.465929231223057849e-01 3.746620578076579999e+00 1.798749062528629539e-01 -4.301070278888593501e-01 1.667426872386913894e+00 -2.237887348128355658e+00 2.335502373039340274e+00 1.940575238393734914e+00 5.977532522751771715e-01 2.147375253397876826e-01 -4.905459548971590616e-02 -3.920104749783485110e-01 3.426092947538421640e-01 1.379216468595601874e+00 2.352599696254543904e+00 1.140059117631981644e+00 2.835384518507501284e+00 4.159764494346349650e+00 -8.691805216835657433e-01 1.162596381365506026e-01 -2.709896161920974045e+00 -9.826474273354770528e-01 5.537251638812722421e-01 -1.230440086090396568e+00 9.636505729476978477e-01 2.681941583378819161e+00 -6.140896317358661705e+00 7.608409103797188211e-02 1.906624332563164881e+00 -8.536376875681713772e-01 1.293990048181014041e-01 2.193757958261522423e-01 1.116820971118755113e+00 -1.687483535585379668e+00 -1.693482948197842397e+00 2.148133214672477642e+00 6.879552719387743709e-01 1.963304820659620420e-01 -1.391811789803252930e+00 5.387562000389136685e+00 -2.413163578886811322e+00 9.097535613637363072e-01 -4.305572280896146076e+00 2.505283641667275241e+00 -2.138908095767224626e+00 8.158825771857034503e-01 8.072724662074673985e-01 8.039428873383751284e-02 -3.702465991396683420e-01 1.031656771405813577e+00 1.020296094038269263e+00 3.267409589513227131e-01 -1.048204392719695566e+00 6.945192988521273758e-01 -8.261156200355596724e+00 2.708251169982406892e-01 -2.075059371464569757e+00 -3.561415260309121145e+00 2.573237903837239937e+00 2.331350041090627379e+00 8.754545281363521614e-01 2.053260528620005854e+00 -3.645150440766895539e+00 3.403271833992427831e-01 2.980037879642454701e+00 -3.649187073063787423e+00 -2.890601534563579822e+00 2.320152885897657224e+00 6.452728990507248241e-01 -2.936585718404284284e-01 -1.319811639364250944e+00 -1.295850498582307386e+00 -2.861574291693868677e+00 -6.024172337952800049e-01 -3.620059557162497388e+00 -1.882604056403623716e+00 -4.868172379403157279e+00 -5.469662473321839496e-02 -1.961669598913872992e-01 1.176432517061360761e+00 -7.748693646079353181e-01 1.010132522401573363e+00 -9.611900270189558393e-01 -2.165847602697397178e+00 3.841202729447810715e-01 -1.629749409326334719e+00 2.161177450529197408e+00 3.625095320230453666e+00 -2.074743125749590522e+00 -2.810124970521780341e+00 1.043736329276677477e+00 -2.832186065910473616e+00 -5.982649018465666796e-02 -1.629113832572327558e+00 1.146127435814862983e+00 -4.134262234202139563e-01 -6.417597434007422663e-01 2.974628278143944815e+00 -5.301753996391392887e-01 -5.420667527430396149e-01 9.697636283292835335e-01 -1.113152520824993941e+00 -1.570957531139301810e+00 -5.894352186402067595e-01 2.129816160016735349e+00 -2.595026976488983284e+00 -3.010675147444849653e+00 2.798759150947487950e-01 2.121165939825867763e+00 3.827829906579916841e+00 3.295536431981428205e+00 -2.081339034344779071e-01 9.810466583749389846e-01 -4.916412449344048641e-02 2.452827476414000119e-01 -2.351097657663560714e+00 -3.546991370382011899e-02 -2.251817071987018082e+00 -5.852921426636392699e-01 8.848935628423064692e-01 1.078316641213157068e+00 9.688076920948986981e-01 1.281532538114199093e+00 -6.661235189710255078e-01 2.289086758052509385e+00 -4.729256692557212149e-01 1.495713676683892851e-02 2.029354923670936728e+00 1.823872856256212982e+00 1.158919703540948754e-01 1.075685888241068477e+00 2.709118146040057518e+00 1.161481550942619290e+00 -1.457722024791033855e+00 -1.702063234376942624e+00 8.901884931303438719e-01 -6.355890953035830959e-01 -3.009394223744014663e-01 5.213606288323473503e-01 -2.968313134037177670e-01 2.280693648199023649e+00 4.735303927692428583e-01 -3.549099675148541078e+00 -5.946633002405247170e-01 -4.323279469831619037e-01 -5.862645339596164185e-01 -7.140278028112958530e-01 2.463272326759791575e+00 -1.193558122413676648e+00 7.306427870335715502e-01 1.786421136071854932e+00 -3.679871134947585443e-01 4.952263914788542776e-01 -2.514476364670018338e+00 6.911609236252486133e-01 3.170982414360946411e+00 4.124527522608196328e+00 -1.573056065713010598e+00 -1.251153409090535407e+00 5.367137155187539088e-01 -1.787774050667157333e+00 1.087569013814172703e+00 -1.614452372693477300e-01 6.796012428565704200e-01 -1.910671249273552030e+00 -1.253384098377658296e+00 -1.819442845143127485e+00 1.276282859245541079e+00 6.838841868566736260e-01 -1.081615881062438111e+00 3.768337145613182670e+00 -4.350204064362223066e-01 -1.233184481831608004e+00 -7.366175170536459760e-01 -9.171845643347402433e-02 1.685919790513424887e+00 1.001486415976103883e+00 8.791934266625558436e-01 -8.153195055468375196e-01 1.421470495661573685e-01 1.427362436153011060e+00 -7.187565761364188566e-01 -1.203219814671803389e+00 1.039852420520190446e+00 2.127656433182729678e+00 -5.541936189159815118e-01 -1.123795346130569417e+00 -3.722098936759144494e-01 -2.723454618452457066e+00 4.519506079321278791e-01 -4.889381411133768118e+00 1.501573735493495265e+00 -2.076437482872935281e+00 -1.963950167606447916e+00 2.331083674781099901e+00 -4.122301461307146392e-02 8.713160801458574856e-02 1.567490655350048057e+00 3.879656151506607475e-01 5.522730046957408014e-04 1.258395178853226382e+00 -6.138900112699230416e-01 1.686300313812749474e+00 -1.458921187404581821e-01 -8.283616845208581214e-01 2.790073963750736574e-01 4.040967177179841663e-01 3.691244153611324297e+00 -5.236196002565823848e-01 -2.590632960823131548e+00 -8.013923527915494116e-01 1.891395687280051474e+00 1.019959793716973762e+00 -4.613670169283926592e-01 -2.864011183471571798e+00 8.777458954630973365e-01 2.690937359863127543e-01 -1.288971254395324673e-01 8.458585572003528563e-01 1.389383125556346243e+00 -3.130647458853191178e+00 3.901932705358025721e+00 -1.193351919923096340e-02 3.657140524240350299e+00 -6.530628280527134288e-01 2.354631896361208399e-01 3.194657648447721154e+00 1.242586492648979357e+00 2.438245206519063846e+00 -7.017194167401626936e-01 2.169739224764005492e+00 -1.504763960559726485e-02 -1.954378978187079507e+00 1.419897494617472722e+00 -2.798111232897286804e-01 -2.865086933123176305e+00 1.167065473249873309e+00 -1.852902670229297666e+00 2.014262032645959710e+00 -1.776317728254106498e+00 -1.985866766985533216e+00 -4.524134065394148085e-01 9.267351849271182607e-01 -3.183046545611566969e-01 1.464562188206734727e-01 7.368175488961288266e-01 -1.444629452190886454e+00 2.357777384228735063e+00 -1.236595821787987548e+00 -2.819780492131810368e-01 9.467959618909825847e-01 -9.845274181224115129e-01 -1.056610358090050550e+00 -3.181635009859342222e+00 4.347807796017826298e-01 2.241853017972130213e-01 -3.858017745512568597e-01 2.677544996609593220e+00 1.952329294577473284e+00 -8.825122068974780021e-01 -3.786659856696346083e+00 6.188373283818203729e-01 1.861992549097087890e+00 -1.288996451208388017e+00 -1.506970995695810389e+00 -1.266437075985848981e+00 7.972189377951708344e-01 -5.832152053582704276e-01 8.160558695530986117e-01 -2.185170472992976065e-01 -1.440812392122118757e+00 -2.518226061830391771e+00 1.188351638081698525e+00 -1.012078333434877297e+00 -4.653958844930953020e+00 -1.822782708425715104e+00 4.222883025290839476e-01 -3.598927658533100926e-01 -3.125741793615949282e-02 -1.170381168160746999e+00 1.747896751559941286e+00 4.157885532000764328e-02 -2.023953549703223054e+00 1.587366312870997165e+00 -1.809048902644137646e+00 2.507970958913587900e+00 -1.980746157506240390e+00 2.269055291667106733e+00 -6.615284430213410616e-01 1.684323649538959522e+00 -2.151780581918573798e+00 8.702151336811893012e-01 5.315411697513103828e-01 -1.791022382669636759e+00 2.285556633120259806e-01 -1.790631060736142199e+00 4.856839984172724445e-01 8.923461630816504897e-01 6.705977530621405336e-01 6.522755561996509410e-01 -4.242500544033058762e-01 2.729523965076688263e+00 -4.449165833220412591e-01 2.059726339384478910e-01 8.820226688151032723e-01 -2.088695989538616793e+00 8.766973995072550041e-01 7.407559650441406518e-01 -6.612605340497893502e-01 5.976511794712367376e+00 -3.182105007556075282e+00 -8.473400269643456273e-01 -4.258627018614308923e+00 7.110802899035529867e-01 2.362242876568379391e+00 3.165368667254556012e+00 -1.797647601843286536e+00 4.863036343303621389e-02 2.504634695175724346e+00 -3.350444915632649234e+00 1.470119371038901335e+00 1.657502927584657282e-01 -2.451397942938158547e-01 4.648916396994224876e+00 -8.288825900643932709e-02 -5.678955430157233142e-01 6.372556845104908607e-01 -4.262391628174250435e+00 -2.029636202380032284e+00 2.595323681818321848e+00 -7.155175001060851137e-02 4.391684703533351275e+00 -6.890145665287868149e-02 -1.387886743392785061e+00 3.395770897009656508e+00 -3.204450981198587733e+00 1.798942923723015230e+00 1.049836529141394026e+00 2.828254848851908254e-01 9.899293063107995616e-01 -1.499795046179488889e+00 -2.468942638140406043e+00 -3.670328227665328846e+00 4.484662486399320080e+00 2.160219971632788116e+00 -2.492203924583996866e+00 1.575115519515437379e+00 -6.456436521572291865e-01 1.504267223387905084e+00 6.512825960766830402e-01 2.859652649032278227e+00 7.259659499965998020e-01 -6.739165332970625810e-01 8.999118918694423153e-01 -1.550010751952820343e+00 7.758931779713890142e-01 2.073281196371238533e+00 -1.225044368550105567e+00 2.179523815763400485e+00 1.718251929659839528e+00 2.365085488458470664e+00 -1.324336267081492879e+00 3.096695524581271730e+00 -7.859132820398258001e-01 -1.050788865831055574e+00 -5.175461398669535251e-01 -1.697735553178134904e-01 -1.012776130890531201e+00 -2.458392886776962882e+00 1.661913912532776649e+00 -1.193614172467225842e-01 -9.049054888420683396e-01 1.913033579053414313e+00 8.054495539154316042e-02 -2.587748182837709354e+00 9.916545166746302264e-01 8.633029793710216282e-01 -3.719726322565786614e+00 -2.610478793544944942e+00 -3.696055716465084462e+00 3.184915223543656637e+00 1.902420064326300508e+00 -1.139246134745180994e+00 -1.986645297087124562e-01 1.571302058991393080e+00 8.422734106559033318e-01 -2.008895111463456118e+00 7.131181464376397106e-01 2.359713425069218662e+00 8.250552455821303921e-01 -5.995555957402225189e-02 -1.464241314505682512e+00 -1.742315400356060806e+00 8.182233096972257869e-01 -1.556465764083123648e+00 -7.508830270129283058e-01 -7.214310378658626843e-02 6.500330398370083307e-01 -3.435168942447993645e-01 1.318533286766789603e+00 7.959554975972775726e-01 -1.686150675596393089e+00 -1.815993967077490057e+00 3.490108279339700359e-01 -5.299734137580921711e+00 -3.926339161244314813e+00 -2.284163609312325871e+00 3.252094040936079011e+00 -6.485505416316658667e-02 2.452741601561315044e+00 -2.556114869588298255e+00 2.528541328566142887e-01 -2.580487386910052638e+00 -7.071022787635843354e-01 2.661034913404969338e+00 -4.741895722522218470e+00 5.273268742112880325e+00 1.066442257391524012e-01 3.210788751015045128e-01 -1.875669276383766571e+00 -2.140345342553187979e+00 1.733186440716988796e+00 1.758507180963006400e+00 -3.575977989818416858e-01 -5.285296877916268343e+00 -2.491962240866858469e+00 1.005671143827327141e+00 8.389793130133700316e-01 1.562019347370566802e+00 6.426704282157479353e-01 -2.032168739203241259e+00 5.455553800668359266e+00 1.192673148632408919e+00 -5.655039026573994709e-01 -1.295997565695289566e+00 -8.324075727898955224e-01 1.116195678778243217e+00 1.184665704284995513e+00