-6.914091331073413471e+01 3.323437613840247451e+01 4.377920371606603567e+01 3.323437613840247451e+01 -6.789488238691440358e+01 -6.052910296189497608e+00 4.377920371606603567e+01 -6.052910296189497608e+00 -2.662563446061227523e+01
-4.695459914361460818e+01 -1.229537747664898895e+01 -1.571140945130536970e+01 -1.229537747664898895e+01 -8.098399216531649358e+01 2.003886946710835559e+01 -1.571140945130536970e+01 2.003886946710835559e+01 -6.061967229597925666e+01
-4.271098568274038598e+01 -1.527958357635960418e+01 9.542015475165140259e+00 -1.527958357635960418e+01 -7.913156717909413373e+01 -9.965785719803175624e+00 9.542015475165140259e+00 -9.965785719803175624e+00 -6.627008075344319593e+01
-9.792008598604385838e+01 6.160490124794135269e+00 2.262580824344320973e+01 6.160490124794135269e+00 -8.910973971588057907e+01 -1.257685346406531934e+01 2.262580824344320973e+01 -1.257685346406531934e+01 -9.231168776902883621e+01
-3.798740434263070398e+01 -1.093073905045430294e+01 -2.059949371126569417e+01 -1.093073905045430294e+01 -5.340576396713645835e+01 2.676986417042718003e+01 -2.059949371126569417e+01 2.676986417042718003e+01 -9.549340412981183590e+01
-1.886638738846569652e+01 -1.497465447023426854e+01 6.204263355203941677e-01 -1.497465447023426854e+01 -6.611985888860567684e+01 3.083173561160015197e+01 6.204263355203941677e-01 3.083173561160015197e+01 -4.814173186844886487e+01
-8.882650228299728212e+01 -2.127881935673220681e+01 -6.161789387413016073e+00 -2.127881935673220681e+01 -4.847475926305894944e+01 -4.035975105225258375e+00 -6.161789387413016073e+00 -4.035975105225258375e+00 -1.469185258546875517e+01
-9.188535217784499309e+01 -3.890238505165910965e+01 -7.367520740300365079e-02 -3.890238505165910965e+01 -9.729026972732984291e+01 -1.352269061427896268e+01 -7.367520740300365079e-02 -1.352269061427896268e+01 -1.185860774290484159e+02
-1.137058342519266176e+02 -1.203859071403120096e+00 1.967260177917648889e+01 -1.203859071403120096e+00 -6.482751821474647613e+01 -3.872773273977927033e+01 1.967260177917648889e+01 -3.872773273977927033e+01 -1.672932857773196247e+01
-4.958764424190679421e+01 -2.746305468347169310e+01 6.400429534628422346e+00 -2.746305468347169310e+01 -7.488481571527054825e+01 -2.980348828414190976e+01 6.400429534628422346e+00 -2.980348828414190976e+01 -6.871133551842835629e+01
-7.876903432067150845e+01 1.130187896299183059e+01 -4.145481806898327903e+00 1.130187896299183059e+01 -9.167273915388680194e+00 -4.702735306031139118e+01 -4.145481806898327903e+00 -4.702735306031139118e+01 -5.320258740111056284e+01
-3.958020684446912441e+01 7.266484297911921075e+00 1.060001774842568878e+01 7.266484297911921075e+00 -1.166887949021230320e+01 3.199248309718546324e+01 1.060001774842568878e+01 3.199248309718546324e+01 -8.467698931960327968e+01
-1.001836753251853054e+02 4.020493474320387861e+01 1.471677813663498702e+00 4.020493474320387861e+01 -1.039019776515232820e+02 1.432002411122255481e+01 1.471677813663498702e+00 1.432002411122255481e+01 -2.415628864263937459e+01
-3.398249784792828621e+01 -1.738792412699579160e+01 -2.967347370105566995e+01 -1.738792412699579160e+01 -5.783613763652881090e+01 3.105701363125994874e+00 -2.967347370105566995e+01 3.105701363125994874e+00 -6.365657700453080992e+01
-1.044799913389127966e+01 1.188522110448941155e-01 -7.735966499733199164e+00 1.188522110448941155e-01 -7.425380281551002781e+01 -2.224065825521960349e+01 -7.735966499733199164e+00 -2.224065825521960349e+01 -7.234601488152051729e+01
-7.364850363981285852e+01 2.572706371455562646e+01 1.062182958927859744e+01 2.572706371455562646e+01 -3.262058496070845592e+01 1.035352471972788102e+01 1.062182958927859744e+01 1.035352471972788102e+01 -6.364342197181070304e+01
-7.518470107874948383e+01 2.783344416088192830e+01 -2.497579744782209232e+01 2.783344416088192830e+01 -8.235461921498198024e+01 3.892993583805969848e+01 -2.497579744782209232e+01 3.892993583805969848e+01 -7.091992732120854726e+01
-2.858880607344184810e+01 1.867724721660216858e+01 -8.869772687719381210e+00 1.867724721660216858e+01 -3.458842364856818818e+01 -1.820038434766076207e+01 -8.869772687719381210e+00 -1.820038434766076207e+01 -4.996344127333482987e+01
-6.577737680641540408e+01 -3.943071304580244174e+01 -6.697215284722437545e+00 -3.943071304580244174e+01 -4.262924829323844733e+01 -1.305089809782192134e+01 -6.697215284722437545e+00 -1.305089809782192134e+01 -7.729225894676305586e+01
-6.654632055675685365e+01 -2.448885485101854886e+00 5.529008326083443059e+00 -2.448885485101854886e+00 -8.364238685768768278e+01 -2.568852682478833671e+01 5.529008326083443059e+00 -2.568852682478833671e+01 -4.684679022836937889e+01
-8.296497313487154202e+01 -8.558577817150135658e+00 2.786632697815814907e+01 -8.558577817150135658e+00 -2.171339282235574153e+00 -5.546564391286582740e+00 2.786632697815814907e+01 -5.546564391286582740e+00 -7.350450654741865719e+01
-1.026134468757503271e+02 2.168697207667858606e+01 -2.458888155248107055e-01 2.168697207667858606e+01 -1.322134795223705623e+02 -3.885814174982492375e+01 -2.458888155248107055e-01 -3.885814174982492375e+01 -8.918395149354729767e+01
-8.166835860604511765e+01 -8.539116906999733914e+00 1.876536246923434570e+00 -8.539116906999733914e+00 -8.447237341470017213e+01 -1.737762757163297200e+00 1.876536246923434570e+00 -1.737762757163297200e+00 -2.125791726951707616e+01
-5.359565544582019925e+01 1.785446143554998644e+00 7.144085511548291301e+00 1.785446143554998644e+00 -4.948288696433822764e+01 7.984094492043888103e+00 7.144085511548291301e+00 7.984094492043888103e+00 -8.789520140825564454e+01
-5.294000566504137595e+01 2.434494464558556004e+01 -6.545578109027833769e+00 2.434494464558556004e+01 -3.824218700761091583e+01 9.526941617767464621e+00 -6.545578109027833769e+00 9.526941617767464621e+00 -4.269242961552523496e+01
-8.306212374366438667e+01 4.616304773296747754e+01 -6.449023524979582422e-01 4.616304773296747754e+01 -7.699582322268248902e+01 3.288234592755567842e+00 -6.449023524979582422e-01 3.288234592755567842e+00 -1.098504845190866206e+02
-5.274520694714600211e+01 1.410388047280808577e+00 -9.455201667428385193e+00 1.410388047280808577e+00 -7.840922711935463951e+01 1.699875786338835226e+01 -9.455201667428385193e+00 1.699875786338835226e+01 -6.572197212698128510e+01
-3.249860157661289861e+01 2.267870460827754542e+01 2.187717213501235847e+01 2.267870460827754542e+01 -7.722807798072693686e+01 3.832953201903796270e+01 2.187717213501235847e+01 3.832953201903796270e+01 -7.847434551691225124e+01
-8.966363822940303407e+01 3.980236504180998480e+01 -1.005701266113836212e+01 3.980236504180998480e+01 -6.392225838940742477e+01 -8.730363502216256677e+00 -1.005701266113836212e+01 -8.730363502216256677e+00 -4.315570499959742534e+01
-7.391316030124895065e+01 -3.447119161126385833e+00 2.126144678639037000e+00 -3.447119161126385833e+00 -4.893524894179721940e+01 -4.405513473859762996e+01 2.126144678639037000e+00 -4.405513473859762996e+01 -4.768487812582355900e+01
-1.079523993717362629e+01 -1.067437310811975060e+01 -9.630338876360307054e+00 -1.067437310811975060e+01 -1.516109915408092768e+01 -2.821741537914537190e+01 -9.630338876360307054e+00 -2.821741537914537190e+01 -1.232070267401696206e+01
-7.743018764941433574e+01 -1.210268211606770627e+01 1.927706815636567939e+01 -1.210268211606770627e+01 -6.551186195597090034e+01 -2.454895515965406005e+01 1.927706815636567939e+01 -2.454895515965406005e+01 -9.843125112753202188e+01
-8.447077246793329053e+00 8.262139015856933000e+00 3.445964943978230366e+01 8.262139015856933000e+00 -4.965990781625966122e+01 -3.912453679942883156e+01 3.445964943978230366e+01 -3.912453679942883156e+01 -4.163608182874432018e+00
2.021586777961993930e-01 -1.424566271876461343e+01 1.536360994904994648e+01 -1.424566271876461343e+01 -9.326951923557406587e+01 -2.789624553939778906e+01 1.536360994904994648e+01 -2.789624553939778906e+01 -8.600730598296262031e+01
-5.727300262840747536e+01 -2.209824837803101261e+01 -1.697805617662689315e+01 -2.209824837803101261e+01 -8.834632995051083526e+01 5.103067249508207226e+00 -1.697805617662689315e+01 5.103067249508207226e+00 -5.950651427551551365e+01
-1.427439140715518135e+02 4.722912652964742364e+01 -8.255298029282720051e+00 4.722912652964742364e+01 -7.271087302875612579e+01 8.203772421674651483e+00 -8.255298029282720051e+00 8.203772421674651483e+00 -1.225225567662364767e+02
-5.587997291349695672e+01 1.560356754247066391e+01 2.111292777771680562e+01 1.560356754247066391e+01 -4.297488216404921246e+01 -9.137469470574508534e+00 2.111292777771680562e+01 -9.137469470574508534e+00 -1.033128198510223257e+02
-6.127011041873776520e+01 3.862254641738652339e+01 -1.916865058737088390e+01 3.862254641738652339e+01 -3.715541377869750761e+01 -2.659774336816509877e+00 -1.916865058737088390e+01 -2.659774336816509877e+00 -2.689789185005618677e+01
-9.117884792429808272e+01 8.227134508740977736e+00 -1.102866435142065527e+01 8.227134508740977736e+00 -6.334394162893733693e+01 4.181437519597301389e+01 -1.102866435142065527e+01 4.181437519597301389e+01 -8.362597372616519920e+01
-4.180641878562985880e+01 -1.029675781400746004e+01 1.962954968522912935e+01 -1.029675781400746004e+01 -3.219963264059695973e+01 1.377186396333117635e+01 1.962954968522912935e+01 1.377186396333117635e+01 -4.888417415028660429e+01
-1.220859008069780032e+02 6.089759587641214722e+00 -3.161193918003162651e+01 6.089759587641214722e+00 -9.385379036255758933e+01 2.589258304618167728e+01 -3.161193918003162651e+01 2.589258304618167728e+01 -1.258814074526671618e+02
-2.515293959395588175e+01 -2.808080022648118756e+01 3.949519828695918733e+01 -2.808080022648118756e+01 -2.548344865970548767e+01 -4.884778234479411618e-01 3.949519828695918733e+01 -4.884778234479411618e-01 -9.525510144860545836e+01
-1.105369127144652595e+02 -4.152459015406025600e+01 -1.035454084293629862e+01 -4.152459015406025600e+01 -6.096187733618943128e+01 -3.372386094553312841e+00 -1.035454084293629862e+01 -3.372386094553312841e+00 -1.013349390473838838e+02
-5.268534100971629641e+01 -2.564823763512372423e+01 -1.640141003334359482e+01 -2.564823763512372423e+01 -8.725286300025352659e+01 3.969553978499945401e+00 -1.640141003334359482e+01 3.969553978499945401e+00 -3.491086922262212511e+01
-8.074670436672698770e+01 -1.503266458468634248e+01 -2.171907581427151257e+01 -1.503266458468634248e+01 -8.155521551404608260e+01 -2.916752743722920371e+00 -2.171907581427151257e+01 -2.916752743722920371e+00 -1.129218598666274858e+02
-6.909205597971188695e+01 -1.705179244941904315e+01 6.372807373976433709e+00 -1.705179244941904315e+01 -6.080647692908285507e+01 -8.156451735985028151e+00 6.372807373976433709e+00 -8.156451735985028151e+00 -8.514311587980841978e+01
-3.180144893274074036e+01 -2.239919936961847924e+01 8.759247582367432727e+00 -2.239919936961847924e+01 -3.463360476378745290e+01 -5.101718434023131188e+00 8.759247582367432727e+00 -5.101718434023131188e+00 -9.739008811533847165e+01
-9.050368185637158547e+01 -3.409403770845793602e+00 -1.154815617208920919e+01 -3.409403770845793602e+00 -9.469378981159114517e+01 4.882538823057859467e+00 -1.154815617208920919e+01 4.882538823057859467e+00 -5.862370203536446667e+01
-6.826998014520853530e+01 1.450647047357217367e+01 2.129383890019746062e+01 1.450647047357217367e+01 -7.765861324322402481e+01 -2.111493416284827784e+00 2.129383890019746062e+01 -2.111493416284827784e+00 -1.109494072269965947e+01
-1.984169052295081670e+01 -1.250842082195586080e+01 -7.304622887493795957e+00 -1.250842082195586080e+01 -2.494946730586200800e+01 -5.590862690024527737e+00 -7.304622887493795957e+00 -5.590862690024527737e+00 -6.667984948490578745e+01
-1.127267132002203738e+02 1.330687134247681591e+00 -1.250645286552787727e+00 1.330687134247681591e+00 -3.366198992702199888e+01 9.911419018762659405e+00 -1.250645286552787727e+00 9.911419018762659405e+00 -4.027188667660534094e+01
-5.096140590491395272e+01 2.533253678474049408e+01 -2.441630728311072929e+01 2.533253678474049408e+01 -1.387760606777280259e+01 -1.685473426107688866e+01 -2.441630728311072929e+01 -1.685473426107688866e+01 -2.275885675398325247e+01
-7.142143525279955441e+01 -5.843870654656462271e-01 1.245945696579792461e+01 -5.843870654656462271e-01 -4.869932188660447281e+01 7.493982517680915834e+00 1.245945696579792461e+01 7.493982517680915834e+00 -3.990261818272094985e+01
-7.629458594974967411e+01 -2.794721358581975679e+01 2.136494941097245004e+01 -2.794721358581975679e+01 -3.458051614912567828e+01 2.502481971766906899e+00 2.136494941097245004e+01 2.502481971766906899e+00 -1.022728853921790773e+02
-5.714441272190389753e+01 -2.901598441695477870e+00 2.173322081654522453e+00 -2.901598441695477870e+00 -1.126033647722878612e+02 1.557330616418903624e+01 2.173322081654522453e+00 1.557330616418903624e+01 -9.394690203589416910e+01
-5.924690639134920644e+01 4.457921510373841656e+00 7.243778813905797698e+00 4.457921510373841656e+00 -4.371147294315380805e+01 2.784353286390029680e+01 7.243778813905797698e+00 2.784353286390029680e+01 -8.217209709369383575e+01
-5.287298535698021595e+01 1.747558559822849844e+01 1.951980023664696517e+01 1.747558559822849844e+01 -4.614710787389056890e+01 4.971972832690459754e+00 1.951980023664696517e+01 4.971972832690459754e+00 -5.280998898658270235e+01
-4.115227332919685921e+01 2.886952211957973802e+01 7.060954614092487702e+00 2.886952211957973802e+01 -8.524156612146911982e+01 1.984621816446661136e+00 7.060954614092487702e+00 1.984621816446661136e+00 -2.712874321061872873e+00
-9.374740009394187723e+01 1.242689433122967380e+01 -1.044899378030512516e+01 1.242689433122967380e+01 -2.271217352448859828e+01 -3.823566364814016083e+01 -1.044899378030512516e+01 -3.823566364814016083e+01 -2.352274800166485136e+01
-1.444323378127435547e+02 -3.874053949486570048e+01 2.324491976293884576e+01 -3.874053949486570048e+01 -7.250079712867363924e+01 -2.888814160295621036e+01 2.324491976293884576e+01 -2.888814160295621036e+01 -1.306392306295405774e+02
-1.820526141026985556e+01 -6.741110141720414894e+00 -8.103087029241416772e+00 -6.741110141720414894e+00 -7.835710976723780696e+00 9.752604748084104713e+00 -8.103087029241416772e+00 9.752604748084104713e+00 -1.104232206359874482e+02
-6.417917516643103681e+01 2.026569849467905637e+00 -2.094414387374186504e+01 2.026569849467905637e+00 -2.497634649558312248e+01 -1.747048126072241203e+01 -2.094414387374186504e+01 -1.747048126072241203e+01 -2.252080991469543036e+01
-1.044734495228120323e+02 6.156348438823989078e+00 1.509435254438157692e+01 6.156348438823989078e+00 -1.021546517825297400e+02 1.817720355244131003e+00 1.509435254438157692e+01 1.817720355244131003e+00 -7.351358642105456909e+01
-1.073278532902563427e+02 2.385872441712018244e+01 3.051709741870925185e+01 2.385872441712018244e+01 -6.402689242766108180e+01 3.075829800334788189e+01 3.051709741870925185e+01 3.075829800334788189e+01 -4.339861495054520901e+01
-5.211021727713801965e+01 2.139980129820076726e+01 -4.953808819129630336e+01 2.139980129820076726e+01 -8.033489375703631197e+01 1.622036386178837475e+01 -4.953808819129630336e+01 1.622036386178837475e+01 -2.957651076682540392e+01
-9.514788636125000210e+01 1.161776423874931474e+01 -4.371214805306111373e+01 1.161776423874931474e+01 -1.257729086343465141e+01 -3.107301192547350510e+01 -4.371214805306111373e+01 -3.107301192547350510e+01 -1.059146056742732327e+02
-5.621023966917208980e+01 -1.523358119195206761e+01 -6.252254877558955037e+00 -1.523358119195206761e+01 -1.018756389210874858e+02 -3.360710301584166615e+01 -6.252254877558955037e+00 -3.360710301584166615e+01 -5.621543973598163291e+01
-7.800540376177752933e+01 2.608464884601728428e+01 7.813698519104368856e+00 2.608464884601728428e+01 -1.252434354107661640e+01 -5.884103029651535088e+00 7.813698519104368856e+00 -5.884103029651535088e+00 -8.143991835886731678e+01
-6.941858008966212878e+01 1.387567925011521375e-01 -1.400516846399392445e+00 1.387567925011521375e-01 -7.917828861438061949e+01 1.179799326407816729e+01 -1.400516846399392445e+00 1.179799326407816729e+01 -1.001749895614326107e+02
-3.652907869409813202e+01 3.596742330477137983e+00 2.664452155584146809e+01 3.596742330477137983e+00 -8.803442840620094501e+01 -2.234961453605852189e+00 2.664452155584146809e+01 -2.234961453605852189e+00 -5.935275011088521069e+01
-7.892504948311292878e+01 -2.785595866069813198e+01 -4.014708674735379645e+01 -2.785595866069813198e+01 -9.522570786808267940e+01 -1.728236086420091766e+01 -4.014708674735379645e+01 -1.728236086420091766e+01 -7.772396054843871127e+01
-6.418467495672487644e+01 -2.046368005285376057e+01 1.050915167249565485e+01 -2.046368005285376057e+01 -5.373598190745646974e+01 3.035423388238148945e+01 1.050915167249565485e+01 3.035423388238148945e+01 -7.768464164295998842e+01
-3.996016942625586665e+01 7.756393098592180291e-01 -1.935166768995987496e+01 7.756393098592180291e-01 -8.804789373171811917e+01 -7.465628291624359036e+00 -1.935166768995987496e+01 -7.465628291624359036e+00 -8.806160974537790764e+01
-6.142318038258486013e+01 4.292475419853689189e+00 -9.892672726545024275e+00 4.292475419853689189e+00 -5.464058053452551178e+01 1.262050969380262799e+01 -9.892672726545024275e+00 1.262050969380262799e+01 -2.317257895641920840e+01
-7.380930093042829299e+01 2.709671433940352614e+01 -1.087833349386957194e+00 2.709671433940352614e+01 -3.734453651978267175e+01 3.651298619485933727e+01 -1.087833349386957194e+00 3.651298619485933727e+01 -5.391957653443412823e+01
-3.977349299201426192e+01 2.689950509181663918e+01 1.023028571137703047e+01 2.689950509181663918e+01 -9.282021767290434866e+01 -2.356552229900625761e+01 1.023028571137703047e+01 -2.356552229900625761e+01 -7.728661617496938163e+01
-7.459769104835558551e+01 -6.767449740485570686e+00 7.083659397790364132e+00 -6.767449740485570686e+00 -4.803012070090441199e+01 -4.229055530659251438e+00 7.083659397790364132e+00 -4.229055530659251438e+00 1.507581462718765586e+01
-8.273173326223289337e+01 -1.317268144370683736e+01 -2.203540650323139616e+01 -1.317268144370683736e+01 -4.948847517487505598e+01 1.045894651654052332e+01 -2.203540650323139616e+01 1.045894651654052332e+01 -7.677962324137048711e+01
-3.346393849727181902e+01 -1.836058686185591071e+01 3.202105942624038448e+01 -1.836058686185591071e+01 -6.728714998776401046e+01 4.956935208627923117e+01 3.202105942624038448e+01 4.956935208627923117e+01 -5.508719160327888176e+01
-6.200472223376479519e+01 -9.073940913879422254e+00 1.079574509154620898e+01 -9.073940913879422254e+00 -1.297360958828372013e+01 -3.181047015107820997e+01 1.079574509154620898e+01 -3.181047015107820997e+01 5.712996441781128532e+00
-8.721233201958860093e+01 -2.767212218198814355e+01 1.407265070325725986e+01 -2.767212218198814355e+01 -6.387751568914818989e+01 -5.814642735545951346e+00 1.407265070325725986e+01 -5.814642735545951346e+00 -4.022397096397975957e+01
1.719583059097976374e+01 -1.370411068971971602e+01 -1.758421724127392949e+00 -1.370411068971971602e+01 -1.304989198551143481e+01 -3.328800610823542172e+00 -1.758421724127392949e+00 -3.328800610823542172e+00 -5.193250464199592642e+01
-8.810753793246371401e+01 2.403815931858407495e+01 1.038077887110681985e+01 2.403815931858407495e+01 -1.009130169215919040e+02 2.877441433729264020e+01 1.038077887110681985e+01 2.877441433729264020e+01 -7.496532233278682611e+01
-4.576378032383932037e+01 -2.495192451023567060e+01 1.525089220525748779e+01 -2.495192451023567060e+01 -1.022318875369612527e+02 -2.567817907695715718e+00 1.525089220525748779e+01 -2.567817907695715718e+00 -1.427729346742866596e+02
-1.609068169180019581e+01 -2.366930824989887228e+01 5.929593261380827762e+00 -2.366930824989887228e+01 -5.877585758351269618e+01 -1.281954218221599540e+01 5.929593261380827762e+00 -1.281954218221599540e+01 -2.588859921670120912e+01
-7.728848079047162756e+00 -9.860042400190541789e-01 2.516292268221563688e+01 -9.860042400190541789e-01 -1.070705241882906620e+02 -3.785550126666402093e+01 2.516292268221563688e+01 -3.785550126666402093e+01 -7.596570456020241124e+01
-1.117070416389906313e+02 -3.331848400307137581e+01 -2.303138682387666947e+00 -3.331848400307137581e+01 -5.050621137406085381e+01 3.418602670374792751e+01 -2.303138682387666947e+00 3.418602670374792751e+01 -5.846222455436088694e+01
-4.168005608950691965e+01 4.583807345719603887e+01 1.854701400819006096e+01 4.583807345719603887e+01 -4.922250288805057750e+01 3.403630485240507397e+01 1.854701400819006096e+01 3.403630485240507397e+01 -5.027414675140482814e+01
-8.406159338754370935e+01 1.006731613939265024e+00 -4.938669306737976328e+00 1.006731613939265024e+00 -5.363071513642263000e+01 -1.245001975009153838e+01 -4.938669306737976328e+00 -1.245001975009153838e+01 -4.050519860564820362e+01
-3.831171327633315826e+01 -2.947235598377532995e+01 -4.593460628280227276e+00 -2.947235598377532995e+01 -4.669107356712749635e+01 -4.630579881033588663e+01 -4.593460628280227276e+00 -4.630579881033588663e+01 -1.042416707139686949e+01
-2.547564212858608457e+01 1.692161477896726396e+01 -7.745165124181008665e+00 1.692161477896726396e+01 -8.159229133406701351e+01 2.287413599680987897e+00 -7.745165124181008665e+00 2.287413599680987897e+00 -1.267496256838275137e+01
-5.714458485583197245e+01 -7.609829951968475115e+00 -4.642023727430958147e+00 -7.609829951968475115e+00 -5.511366601248096941e+01 -2.695157599691072381e+00 -4.642023727430958147e+00 -2.695157599691072381e+00 -1.237606993569234106e+02
-5.349416217181482125e+01 3.719509189444057728e+00 -2.006755042752359941e+01 3.719509189444057728e+00 -1.140315643685730151e+02 1.446183047909048902e+01 -2.006755042752359941e+01 1.446183047909048902e+01 -7.042329612513144355e+01
-4.638778134543036202e+01 5.163528224363881591e+00 3.790079711593488998e+00 5.163528224363881591e+00 -3.769934071452139790e+01 2.500142413152301302e+01 3.790079711593488998e+00 2.500142413152301302e+01 -3.123820642938523573e+00
-6.178903464951553559e+01 5.210479440961848496e+01 -3.331356195604090686e+00 5.210479440961848496e+01 -1.262617528258875836e+02 -3.504565442814656251e+01 -3.331356195604090686e+00 -3.504565442814656251e+01 -9.366407004284629068e+01
-1.254397200505340777e+02 4.429969558753587222e+01 1.595674575776414805e+01 4.429969558753587222e+01 -8.278428343017348823e+01 -5.837527177113798871e+00 1.595674575776414805e+01 -5.837527177113798871e+00 -1.131644785666346849e+02
-4.102225395443791456e+01 1.305154820683687689e+01 -6.135258701403411230e+00 1.305154820683687689e+01 -2.907520293509990950e+01 -4.349827013648814855e+00 -6.135258701403411230e+00 -4.349827013648814855e+00 -1.579565123468017696e+01
-5.753839139540978920e+01 2.121791732884862114e+00 2.632796430391096010e+01 2.121791732884862114e+00 -8.926235254534900321e+01 -1.530302451429025012e+01 2.632796430391096010e+01 -1.530302451429025012e+01 -5.039418831332805837e+01
-6.899664596068053868e+01 1.005184487017173289e+01 -4.976722959857684003e+01 1.005184487017173289e+01 -3.546442834902783403e+01 -3.765164922299960182e+01 -4.976722959857684003e+01 -3.765164922299960182e+01 -4.785651982979144492e+01
-1.151521752938920713e+02 -8.495213704500740093e+00 -1.028842726860562529e+01 -8.495213704500740093e+00 -6.785961942096963639e+01 -1.923170823813154939e+01 -1.028842726860562529e+01 -1.923170823813154939e+01 -2.935001911425722199e+01
-1.143469458957675613e+02 -1.391424928652677551e+01 -3.433882013656275234e+01 -1.391424928652677551e+01 -5.497369021005336265e+01 -8.287029455147502333e+00 -3.433882013656275234e+01 -8.287029455147502333e+00 -7.094029265361162118e+01
-4.660047899305024544e+01 7.575917433107013377e-01 2.064070827422284893e+01 7.575917433107013377e-01 -1.002852297655125824e+02 -1.124325896621880716e+01 2.064070827422284893e+01 -1.124325896621880716e+01 -6.294438737013589247e+01
-3.410692442779402000e+01 3.682434438539252852e+01 -3.626746177340928412e+00 3.682434438539252852e+01 -5.450829129797794792e+01 8.796306471539166338e+00 -3.626746177340928412e+00 8.796306471539166338e+00 2.234957302490362352e+01
-2.635161723297770209e+01 1.441680728423169455e+01 1.367376422987203810e+01 1.441680728423169455e+01 -7.786133872553723734e+01 -2.126139301927008773e+01 1.367376422987203810e+01 -2.126139301927008773e+01 -4.684438834984290878e+01
-9.361716844423408190e+01 1.549237566398954824e+00 -1.883782257744900335e+01 1.549237566398954824e+00 -8.759832720876231349e+01 7.987531390205088400e+00 -1.883782257744900335e+01 7.987531390205088400e+00 -8.708482948347163699e+01
-4.731844798338691049e+01 -5.695887924786918965e+00 3.150851513813936577e+01 -5.695887924786918965e+00 -8.228100936293978407e+01 -2.521414942846515572e+01 3.150851513813936577e+01 -2.521414942846515572e+01 -7.232319897896321947e+01
-8.003140492763742486e+01 3.274575984734831025e+01 -1.685731964510628123e+00 3.274575984734831025e+01 -3.167291861358873817e+01 2.172679213862538650e-01 -1.685731964510628123e+00 2.172679213862538650e-01 -9.205134099148675375e+01
-1.058981032976984693e+02 4.540286951746021060e+01 -2.097435633953739753e+01 4.540286951746021060e+01 -9.733289022796421364e+01 -9.602241839766788800e+00 -2.097435633953739753e+01 -9.602241839766788800e+00 -1.285809368751674810e+02
-1.838263386052114967e+01 7.212791381541195257e+00 -4.571801337813483634e+00 7.212791381541195257e+00 -3.597478943920940253e+00 2.114311784498559632e+01 -4.571801337813483634e+00 2.114311784498559632e+01 -5.212378199498984799e+01
-5.700862075072670621e+01 -1.472565921253289778e+00 1.584707895162956959e+01 -1.472565921253289778e+00 -8.943030225472504924e+01 -4.020993419864348084e+01 1.584707895162956959e+01 -4.020993419864348084e+01 -1.364249683111784179e+02
-2.703266871532854410e+01 1.511289845433644530e+01 1.160668360821124123e+00 1.511289845433644530e+01 -8.898888539078825488e+01 1.181006927459554845e+01 1.160668360821124123e+00 1.181006927459554845e+01 -7.184524555776273758e+01
-6.895626020251860666e+01 1.098225833362313164e+00 -2.760345604503434558e+01 1.098225833362313164e+00 -9.840429824796808589e+01 -3.880574828400060738e+00 -2.760345604503434558e+01 -3.880574828400060738e+00 -9.303437301254439262e+01
5.857758066080763770e-01 5.991625938760736680e+00 6.026247191725604324e+01 5.991625938760736680e+00 2.216786444155609104e+01 2.697158984558129191e+00 6.026247191725604324e+01 2.697158984558129191e+00 -2.779095493180690468e+01
9.882005617479142856e+00 -1.301729795710024717e+01 1.463757381081795117e+01 -1.301729795710024717e+01 -4.459500922616242491e+01 4.823698081805484428e+00 1.463757381081795117e+01 4.823698081805484428e+00 -2.253556246097878812e+01
-2.907323401371207083e+01 1.433741497025757816e+01 -2.399592658337508766e+01 1.433741497025757816e+01 -8.008469707045288999e+01 -2.368380980267598801e+01 -2.399592658337508766e+01 -2.368380980267598801e+01 -3.729700428390533773e+01
-3.326923353432445651e+01 -1.601313742741675838e+01 -1.690484101884409540e+01 -1.601313742741675838e+01 -3.000420484659976950e+01 -2.227137203717139613e+01 -1.690484101884409540e+01 -2.227137203717139613e+01 -6.292603845951842523e+00
-6.554483548641002244e+01 -3.189047843542189398e+00 5.973172482468657840e+00 -3.189047843542189398e+00 -5.799574382049924992e+01 -1.522188169338840424e+01 5.973172482468657840e+00 -1.522188169338840424e+01 -7.700990577243825896e+01
-3.943190883282247938e+01 -8.999567516542741785e+00 2.964996483731126009e+00 -8.999567516542741785e+00 -5.543322465154166423e+01 -9.406259856158134980e+00 2.964996483731126009e+00 -9.406259856158134980e+00 -1.798759904431042500e+00
-2.431957959195501218e+01 -1.748219026757395156e+01 1.488733590865706091e+01 -1.748219026757395156e+01 -8.104743712301417702e+01 -2.143960866494459605e+00 1.488733590865706091e+01 -2.143960866494459605e+00 -6.782773663556682209e+01
-7.336705523941628826e+01 5.592696133288990623e+00 -5.593408846805460399e+01 5.592696133288990623e+00 -1.259033982127083675e+02 4.304158681533267128e+01 -5.593408846805460399e+01 4.304158681533267128e+01 -8.511778079713052136e+01
-6.104433368934290627e+01 1.488222350476265055e+00 2.113606274267438678e+01 1.488222350476265055e+00 -8.832594521922550257e+01 2.214740777902215285e+01 2.113606274267438678e+01 2.214740777902215285e+01 -8.777996475468717108e+01
-1.118670116183582337e+02 3.217526372846093352e+01 -3.759152984737550440e+00 3.217526372846093352e+01 -8.930069939428929615e+01 -1.500959331469667113e+01 -3.759152984737550440e+00 -1.500959331469667113e+01 -3.991869717110782290e+01
-4.348161993411101633e+01 1.895873104151585764e+01 -7.874791224893145980e+00 1.895873104151585764e+01 -7.230633362593181346e+01 6.697751393296099032e+00 -7.874791224893145980e+00 6.697751393296099032e+00 -5.705498946378190794e+01
-7.039474710971140325e+01 -3.206094229051126376e+01 1.127182811744659219e+01 -3.206094229051126376e+01 -8.221267165692142953e+01 2.265383190620851650e+01 1.127182811744659219e+01 2.265383190620851650e+01 -1.204097803295312445e+02
-1.029156087796722971e+02 -1.231808448808735745e+00 -2.016257339745542509e+01 -1.231808448808735745e+00 -1.233473382853726150e+02 1.249945730417610612e+01 -2.016257339745542509e+01 1.249945730417610612e+01 -1.158667668977304146e+02
-7.218688275861278214e+01 -4.936296693498982258e+00 -1.703214578967452653e+01 -4.936296693498982258e+00 -8.103600709042522965e+01 -9.385666996954062924e+00 -1.703214578967452653e+01 -9.385666996954062924e+00 -4.110253310653992287e+01
-6.130233233248070945e+01 -2.790310614377532872e+01 2.550822357370433124e+01 -2.790310614377532872e+01 -4.512855186675133012e+01 7.739386233119726732e+00 2.550822357370433124e+01 7.739386233119726732e+00 -5.645146858194194550e+01
-3.793931162572142313e+01 8.761522945399926598e+00 2.627056934101096175e+01 8.761522945399926598e+00 -1.278985218111127864e+02 -1.654405390647117358e+01 2.627056934101096175e+01 -1.654405390647117358e+01 -8.472839165047672338e+01
-4.296178925597200760e+01 1.480910798891317270e+01 2.217357601863342964e+01 1.480910798891317270e+01 -6.292596036673619153e+01 1.199715830417254203e+01 2.217357601863342964e+01 1.199715830417254203e+01 -4.182336769638659035e+01