1.248582399999999915e+01 2.335294000000000203e+00 9.652824000000000737e+00 3.389543999999999890e+00 1.260532399999999953e+01 1.374163999999999941e+00 1.408202400000000054e+01 4.101739999999999831e-01 6.661903999999999826e+00 7.230444000000000315e+00 2.073969999999999980e-01 6.353824000000000360e+00 1.085592399999999991e+01 7.734484000000000137e+00 1.386172400000000060e+01 9.901123999999999370e+00 6.581614000000000075e+00 2.440224000000000171e+00 1.185582400000000014e+01 4.309084000000000358e+00 1.147122399999999942e+01 1.159064000000000094e+00 3.573383999999999894e+00 4.000873999999999597e+00 4.214439999999999853e-01 4.485263999999999918e+00 6.441413999999999973e+00 1.077882400000000018e+01 1.919224000000000041e+00 1.346772400000000047e+01 1.341512400000000049e+01 7.920944000000000429e+00 9.786123999999999157e+00 5.657294000000000267e+00 3.276933999999999791e+00 7.848904000000000103e+00 8.212800000000000655e-02 1.951173999999999964e+00 7.692740000000000133e-01 9.546554000000000428e+00 7.827384000000000341e+00 4.269814000000000220e+00 9.330439999999999845e-01 9.793423999999999907e+00 6.248283999999999949e+00 3.304803999999999853e+00 6.892654000000000281e+00 6.320284000000000013e+00 6.771913999999999767e+00 2.059044000000000096e+00 1.221382400000000068e+01 1.407522400000000040e+01 7.357814000000000298e+00 5.172813999999999801e+00 2.916523999999999894e+00 1.333412399999999920e+01 1.129652399999999979e+01 9.726824000000000581e+00 1.501002399999999959e+01 1.241582400000000064e+01 6.761034000000000432e+00 5.654384000000000299e+00 1.369762399999999936e+01 5.304914000000000129e+00 5.612003999999999770e+00 6.950143999999999878e+00 1.234243999999999897e+00 3.855503999999999820e+00 1.504474000000000089e+00 9.457084000000000046e+00 3.920330000000000203e-01 6.823474000000000039e+00 1.435692399999999935e+01 1.281052399999999913e+01 6.462483999999999895e+00 6.625193999999999583e+00 7.719573999999999714e+00 6.264624000000000414e+00 1.378943999999999948e+00 1.577703999999999995e+00 9.245324000000000098e+00 1.366372400000000020e+01 5.055183999999999678e+00 1.377982399999999963e+01 1.396862400000000015e+01 3.136680000000000024e-01 2.596633999999999887e+00 5.965904000000000096e+00 1.052944000000000102e+00 8.246954000000000562e+00 9.866923999999999140e+00 4.665753999999999735e+00 5.988139999999999574e-01 5.429584000000000188e+00 1.414002400000000037e+01 4.733363999999999905e+00 4.708683999999999870e+00 7.333724000000000132e+00 1.401112400000000058e+01 8.064463999999999189e+00 6.851014000000000159e+00 1.192922399999999961e+01 3.370443999999999996e+00 1.071512399999999943e+01 6.719234000000000151e+00 7.024403999999999648e+00 1.203773999999999900e+00 1.424022399999999955e+01 8.911804000000000059e+00 1.344862400000000058e+01 1.020462400000000081e+01 9.128899999999999515e-02 8.703723999999999350e+00 8.375804000000000471e+00 7.901013999999999982e+00 8.850853999999999999e+00 7.979633999999999894e+00 8.624003999999999337e+00 9.542744000000000781e+00 1.182342399999999927e+01 5.435774000000000328e+00 8.472454000000000818e+00 1.218412400000000062e+01 2.528054000000000023e+00 4.446124000000000187e+00 1.454772400000000054e+01 1.111462399999999917e+01 1.240932399999999980e+01 1.467272400000000054e+01 5.541273999999999589e+00 1.083292400000000022e+01 8.250363999999999365e+00 1.397532400000000052e+01 5.411603999999999637e+00 1.037912399999999913e+01 6.975374000000000407e+00 4.146904000000000146e+00 4.841193999999999775e+00 1.101292399999999994e+01 9.640924000000000049e+00 3.000614000000000114e+00 6.423394000000000048e+00 1.036032400000000031e+01 1.322432399999999930e+01 1.132713999999999999e+00 1.273514000000000035e+00 6.944734000000000407e+00 5.413254000000000232e+00 5.527344000000000257e+00 2.323313999999999879e+00 2.895363999999999827e+00 1.305942399999999992e+01 9.087533999999999779e+00 3.293903999999999943e+00 2.948084000000000149e+00 1.244162399999999913e+01 1.496262399999999992e+01 1.141402399999999950e+01 8.338039999999999896e-01 1.236592399999999969e+01 9.886423999999999879e+00 1.118312399999999940e+01 9.488839999999999497e-01 4.015474000000000210e+00 9.686524000000000356e+00 1.499152400000000007e+01 1.103592399999999962e+01 4.672433999999999976e+00 1.389102399999999982e+01 5.298779999999999601e-01 1.177512399999999992e+01 9.205323999999999174e+00 1.150942399999999921e+01 6.812643999999999700e+00 2.568313999999999986e+00 7.430214000000000318e+00 8.911063999999999652e+00 2.133593999999999991e+00 1.047512399999999921e+01 5.850739999999999830e-01 1.164042399999999944e+01 3.876754000000000033e+00 1.400972400000000029e+01 4.851613999999999649e+00 2.701153999999999833e+00 4.276224000000000025e+00 1.183312399999999975e+01 9.750640000000000418e-01 3.484334000000000042e+00 5.993934000000000317e+00 9.421134000000000341e+00 9.997123999999999455e+00 1.567493999999999943e+00 1.302312399999999926e+01 1.504222399999999915e+01 2.757924000000000042e+00 1.343052400000000013e+01 6.942374000000000045e+00 1.988294000000000006e+00 5.799544000000000032e+00 1.085082399999999936e+01 8.181184000000000012e+00 1.472504000000000035e+00 1.601663999999999977e+00 4.818243999999999971e+00 1.330392400000000031e+01 2.899204000000000114e+00 2.807424000000000142e+00 2.026224000000000025e+00 5.081523999999999930e+00 1.247324000000000099e+00 1.286172400000000060e+01 1.255252400000000002e+01 9.686723999999999890e+00 6.600723999999999592e+00 6.578873999999999889e+00 6.699823999999999558e+00 2.246754000000000140e+00 1.001682399999999973e+01 2.981034000000000184e+00 6.475863999999999621e+00 2.476183999999999941e+00 6.946740000000000137e-01 1.285102400000000067e+01 8.384114000000000289e+00 1.081082400000000021e+01 1.428092400000000062e+01 5.369183999999999735e+00 1.276512400000000014e+01 7.000104000000000326e+00 2.767180000000000195e-01 1.334162399999999948e+01 3.347294000000000214e+00 7.272963999999999984e+00 7.593239999999999990e-01 5.703444000000000180e+00 1.302272400000000019e+01 1.031432399999999916e+01 1.099532400000000010e+01 1.062142399999999931e+01 9.282844000000000761e+00 4.157803999999999611e+00 5.959153999999999840e+00 1.189902400000000071e+01 4.335030000000000272e-01 8.220634000000000441e+00 1.420852400000000060e+01 1.271262399999999992e+01 3.192984000000000044e+00 1.150172399999999939e+01 3.080654000000000003e+00 5.211833999999999634e+00 1.442702399999999940e+01 1.554303999999999908e+00 1.313752400000000087e+01 1.267782399999999932e+01 1.212572399999999995e+01 1.234592400000000012e+01 1.280482399999999998e+01 7.943004000000000175e+00 2.969533999999999896e+00 5.942403999999999797e+00 2.694554000000000116e+00 2.128563999999999901e+00 7.567724000000000117e+00 1.230602400000000074e+01 8.298073999999999728e+00 5.921573999999999671e+00 1.267842399999999969e+01 1.426902399999999993e+01 1.424472399999999972e+01 1.348572399999999938e+01 1.119172400000000067e+01 5.120504000000000389e+00 1.483442400000000028e+01 6.087139999999999773e-01 1.190452400000000033e+01 7.817294000000000409e+00 6.767333999999999961e+00 1.014352399999999932e+01 5.905604000000000298e+00 1.165002400000000016e+01 1.285462399999999938e+01 1.165452400000000033e+01 1.296434000000000086e+00 9.910624000000000322e+00 2.136093999999999937e+00 6.002939999999999943e-01 1.493554000000000048e+00 6.970754000000000339e+00 4.887393999999999572e+00 8.652214000000000738e+00 1.323292400000000058e+01 1.407772399999999990e+01 1.033462399999999981e+01 8.619443999999999662e+00 8.929040000000000310e-01 6.812164000000000108e+00 6.554873999999999867e+00 3.929724000000000217e+00 5.413324000000000247e+00 3.701773999999999898e+00 1.240452400000000033e+01 2.600994000000000028e+00 8.172639999999999905e-01 1.144412400000000041e+01 1.073442400000000063e+01 1.164662399999999920e+01 4.591173999999999644e+00 3.203424000000000049e+00 8.188983999999999597e+00 4.129430000000000045e-01 6.278754000000000168e+00 4.762953999999999688e+00 3.830390000000000184e-01 1.016762400000000000e+01 9.283984000000000236e+00 7.729644000000000403e+00 4.081883999999999624e+00 2.546354000000000006e+00 5.356423999999999630e+00 3.952604000000000006e+00 1.433622399999999963e+01 4.831004000000000076e+00 1.465822400000000059e+01 5.498733999999999789e+00 1.279582399999999964e+01 1.506582399999999922e+01 1.555873999999999979e+00 1.199292400000000036e+01 1.130122399999999949e+01 1.090982400000000041e+01 3.530154000000000014e+00 2.523753999999999831e+00 4.215264000000000344e+00 9.313240000000000407e-01 1.217384000000000022e+00 7.674114000000000324e+00 8.556084000000000245e+00 1.273062400000000061e+01 1.029932400000000037e+01 1.228242400000000067e+01 9.853723999999999705e+00 1.025832400000000000e+01 1.199382400000000004e+01 1.367542399999999958e+01 1.078242400000000067e+01 3.594370000000000065e-01 3.117023999999999795e+00 1.208042400000000072e+01 6.489843999999999724e+00 1.048602400000000046e+01 6.996634000000000242e+00 1.254272399999999976e+01 1.198462400000000017e+01 8.683764000000000038e+00 3.522094000000000058e+00 5.836363999999999663e+00 2.682824000000000098e+00 1.320402400000000043e+01 8.700440000000000396e-01 4.152044000000000068e+00 2.909623999999999988e+00 5.885653999999999719e+00 3.701553999999999789e+00 4.308994000000000213e+00 1.187572399999999995e+01 1.233332399999999929e+01 7.209039999999999893e-01 6.464464000000000432e+00 6.429254000000000246e+00 2.556583999999999968e+00 4.827274000000000065e+00 2.276083999999999996e+00 2.908774000000000193e+00 1.305002400000000051e+01 5.087083999999999939e+00 1.128362399999999965e+01 1.513954000000000022e+00 5.589763999999999733e+00 1.416262399999999921e+01 1.159122400000000042e+01 8.876414000000000470e+00 7.457404000000000366e+00 1.006232400000000027e+01 1.431042399999999937e+01 6.691644000000000148e+00 4.441979999999999817e-01 9.902824000000000737e+00 4.891224000000000238e+00 1.416682400000000008e+01 1.469732400000000005e+01 1.081582399999999922e+01 1.286792400000000036e+01 7.459763999999999839e+00 1.658673999999999982e+00 1.048762400000000028e+01 3.795103999999999811e+00 5.711663999999999852e+00 1.176682399999999973e+01 2.496593999999999980e+00 3.742513999999999896e+00 1.309642400000000073e+01 1.201912399999999970e+01 2.603924000000000127e+00 4.454874000000000223e+00 7.148424000000000333e+00 1.254412400000000005e+01 1.057312399999999997e+01 1.029584000000000055e+00 7.888633999999999702e+00 7.796683999999999948e+00 1.317572400000000066e+01 9.443094000000000321e+00 1.411302399999999935e+01 8.740503999999999607e+00 9.045524000000000342e+00 5.591254000000000168e+00 5.974973999999999563e+00 1.501592400000000005e+01 3.300910000000000233e-01 9.773524000000000100e+00 7.354204000000000185e+00 1.030922400000000039e+01 1.298674000000000106e+00 1.236192400000000013e+01 8.436614000000000502e+00 5.716139999999999555e-01 6.174684000000000061e+00 8.824934000000000722e+00 6.085954000000000086e+00 1.094712400000000052e+01 4.053093999999999753e+00 5.446734000000000187e+00 2.817104000000000052e+00 6.547693999999999903e+00 3.328723999999999794e+00 8.907553999999999306e+00 6.760244000000000142e+00 7.546884000000000370e+00 4.938284000000000340e+00 2.142203999999999997e+00 9.255694000000000088e+00 1.919990000000000030e-01 3.851264000000000021e+00 1.309952400000000061e+01 1.028512399999999971e+01 2.768283999999999967e+00 6.862403999999999726e+00 1.018502400000000030e+01 1.333903999999999979e+00 3.951153999999999833e+00 5.776013999999999982e+00 1.317242399999999947e+01 8.006154000000000437e+00 6.066793999999999798e+00 6.024644000000000332e+00 1.347102399999999989e+01 3.582183999999999813e+00 7.383943999999999619e+00 1.295762399999999914e+01 1.423482399999999970e+01 1.267642400000000080e+01 6.605140000000000455e-01 2.317384000000000110e+00 1.128382399999999919e+01 1.040152400000000021e+01 1.013552400000000020e+01 1.586124000000000089e+00 6.206593999999999944e+00 1.203792400000000029e+01 1.264442400000000077e+01 8.175653999999999755e+00 1.118002399999999952e+01 1.132462400000000002e+01 6.618593999999999866e+00 6.765393999999999686e+00 2.631543999999999883e+00 1.614384000000000041e+00 1.268222399999999972e+01 9.578124000000000748e+00 5.326654000000000444e+00 1.758304000000000089e+00 1.105982400000000077e+01 1.656964000000000103e+00 1.476232399999999956e+01 6.236833999999999989e+00 6.668064000000000213e+00 7.060874000000000095e+00 1.896943999999999964e+00 4.437184000000000239e+00 1.055612400000000051e+01 1.350102399999999925e+01 6.580674000000000134e+00 9.401963999999999544e+00 9.140594000000000108e+00 5.437934000000000268e+00 6.639123999999999803e+00 5.550863999999999798e+00 1.141632399999999947e+01 1.384902400000000000e+01 7.405053999999999803e+00 4.628204000000000207e+00 1.473842400000000019e+01 4.794923999999999964e+00 1.019632400000000061e+01 7.248803999999999803e+00 4.254083999999999754e+00 6.090504000000000140e+00 5.883034000000000319e+00 1.597799999999999915e-02 1.291692399999999985e+01 4.357249999999999734e-01 1.227092400000000083e+01 7.801154000000000366e+00 1.443692399999999942e+01 1.446652399999999972e+01 1.270382399999999912e+01 7.936933999999999934e+00 1.948944000000000010e+00 1.107534000000000018e+00 5.885074000000000360e+00 1.482312399999999997e+01 1.185412400000000055e+01 5.725293999999999883e+00 1.276052400000000020e+01 3.383054000000000006e+00 5.796543999999999919e+00 1.372122399999999942e+01 7.198144000000000098e+00 3.768283999999999967e+00 6.061300000000000021e-02 1.186692399999999914e+01 3.581634000000000206e+00 1.015652399999999922e+01 1.100062400000000018e+01 5.786334000000000088e+00 1.331442400000000070e+01 3.739214000000000038e+00 1.370092400000000055e+01 1.200392399999999959e+01 2.945714000000000166e+00 1.067152399999999979e+01 5.795673999999999992e+00 9.099064000000000263e+00 1.328212399999999960e+01 1.423132400000000075e+01 1.412792400000000015e+01 3.042753999999999959e+00 5.348093999999999681e+00 1.064462400000000031e+01 9.537943999999999534e+00 3.509733999999999909e+00 7.324133999999999922e+00 7.847783999999999871e+00 4.034043999999999741e+00 1.233852399999999960e+01 2.391383999999999954e+00 5.681254000000000026e+00 4.916503999999999763e+00 1.290462400000000009e+01 1.225982400000000005e+01 1.007053999999999894e+00 9.601323999999999970e+00 7.276913999999999660e+00 8.655439999999999801e-01 1.292242399999999947e+01 3.249044000000000043e+00 7.082764000000000060e+00 1.234134000000000064e+00 8.159183999999999770e+00 8.209543999999999286e+00 1.192062400000000011e+01 9.536993999999999971e+00 7.781133999999999773e+00 5.663604000000000305e+00 5.128464000000000134e+00 1.354542400000000058e+01 1.481142400000000059e+01 2.013144000000000045e+00 6.756514000000000131e+00 3.453183999999999809e+00 1.470862400000000036e+01 1.581123999999999974e+00 1.460622399999999921e+01 7.250714000000000325e+00 8.897873999999999839e+00 6.847324000000000410e+00 4.246503999999999834e+00 3.471804000000000112e+00 1.142792400000000086e+01 1.484692399999999957e+01 1.265123999999999915e+00 1.895113999999999965e+00 1.117242399999999947e+01 2.488009999999999944e-01 4.762614000000000125e+00 2.353794000000000164e+00 1.085663999999999962e+00 1.013722399999999979e+01 4.618564000000000114e+00 1.466672400000000032e+01 1.773493999999999904e+00 9.489703999999999695e+00 1.426342400000000055e+01 1.103812399999999982e+01 1.290262399999999943e+01 1.280482399999999998e+01 1.111252400000000051e+01 9.476763999999999299e+00 1.251414000000000026e+00 1.787584000000000062e+00 3.327513999999999861e+00 1.384652400000000050e+01 8.018024000000000484e+00 1.101942400000000077e+01 3.154704000000000175e+00 1.312052399999999963e+01 9.759524000000000754e+00 8.778204000000000562e+00 1.451012399999999936e+01 3.360593999999999859e+00 1.111052399999999984e+01 3.875779999999999781e-01 7.186283999999999672e+00 2.247663999999999884e+00 2.332743999999999929e+00 4.223373999999999739e+00 8.335834000000000188e+00 1.465202400000000083e+01 9.471493999999999858e+00 3.302954000000000168e+00 5.550559999999999938e-01 5.778774000000000299e+00 9.656439999999999468e-01 6.684199999999999864e-02 1.803654000000000091e+00 1.220252400000000037e+01 9.373483999999999483e+00 1.310342400000000040e+01 6.863339999999999996e-01 1.281422399999999939e+01 1.295732399999999984e+01 1.494692399999999921e+01 7.533094000000000179e+00 1.322322400000000009e+01 2.749794000000000072e+00 8.547254000000000573e+00 5.688843999999999568e+00 8.296824000000000865e+00 1.091522400000000026e+01 9.079323999999999728e+00 8.146634000000000597e+00 8.119274000000000768e+00 1.219952400000000026e+01 1.258122400000000063e+01 1.336202399999999990e+01 6.959164000000000350e+00 2.739779999999999993e-01 7.698864000000000374e+00 2.405104000000000131e+00 7.642313999999999830e+00 5.621523999999999965e+00 1.486882400000000004e+01 1.476393999999999984e+00 6.858813999999999744e+00 5.793073999999999835e+00 4.240344000000000335e+00 1.580003999999999964e+00 1.073782399999999981e+01 7.333364000000000438e+00 1.546024000000000065e+00 6.306084000000000245e+00 1.486382399999999926e+01 5.499323999999999657e+00 9.722523999999999944e+00 9.061443999999999832e+00 3.558003999999999944e+00 7.395844000000000307e+00 9.416783999999999821e+00 9.218374000000000734e+00 5.252664000000000222e+00 2.139184000000000196e+00 7.494734000000000229e+00 2.419124000000000052e+00 1.242572400000000066e+01 1.226012399999999936e+01 1.105422399999999961e+01 4.708993999999999680e+00 1.481562399999999968e+01 7.567234000000000016e+00 5.244623999999999953e+00 4.352973999999999677e+00 9.564273999999999276e+00 1.045842400000000083e+01 7.993674000000000390e+00 2.025634000000000157e+00 2.623543999999999876e+00 4.041004000000000040e+00 1.137963999999999976e+00 1.360312399999999933e+01 1.389452400000000054e+01 1.038472400000000029e+01 9.889824000000000837e+00 1.478634000000000004e+00 2.613684000000000118e+00 9.636523999999999646e+00 6.363324000000000424e+00 1.136632400000000054e+01 1.301652400000000043e+01 4.879004000000000119e+00 2.080750000000000099e-01 6.983314000000000021e+00 5.418053999999999704e+00 7.562213999999999992e+00 6.670233999999999774e+00 1.315392399999999995e+01 1.436312399999999911e+01 4.529294000000000153e+00 7.103594000000000186e+00 1.878430000000000100e-01 3.449333999999999900e+00 8.088440000000000074e-01 1.065702399999999983e+01 4.876534000000000368e+00 1.195532399999999917e+01 1.507592400000000055e+01 1.251222399999999979e+01 1.192522400000000005e+01 7.919494000000000256e+00 1.287624000000000102e+00 2.004710000000000103e-01 9.421134000000000341e+00 1.215342399999999934e+01 1.025772399999999962e+01 3.572664000000000062e+00 3.533043999999999851e+00 1.406942399999999971e+01 1.450352400000000053e+01 1.441342399999999913e+01 5.846154000000000295e+00 1.344722400000000029e+01 6.026883999999999908e+00 1.487762400000000085e+01 9.432014000000000564e+00 1.439182399999999973e+01 1.361632400000000054e+01 8.677540000000000253e-01 1.071982399999999913e+01 1.161524000000000001e+00 6.354624000000000272e+00 1.205262399999999978e+01 8.038154000000000465e+00 9.649423999999999779e+00 6.669643999999999906e+00 3.701173999999999964e+00 1.499182399999999937e+01 4.929573999999999678e+00 9.703523999999999816e+00 5.161374000000000350e+00 4.354823999999999806e+00 7.310793999999999571e+00 1.215683999999999987e+00 1.363992400000000060e+01 7.429114000000000217e+00 5.853393999999999764e+00 1.158274000000000026e+00 9.871024000000000242e+00 2.922163999999999984e+00 1.471532400000000074e+01 1.179172400000000032e+01 2.383334000000000064e+00 1.340952399999999933e+01 8.065539999999999932e-01 7.406664000000000136e+00 1.031892400000000087e+01 1.226892400000000016e+01 8.400954000000000477e+00 1.245162400000000069e+01 7.147494000000000014e+00 9.091040000000000232e-01 2.900403999999999982e+00 8.945714000000000610e+00 1.604484000000000021e+00 8.845439999999999969e-01 8.065483999999999654e+00 9.802823999999999316e+00 1.273412399999999955e+01 1.491012399999999971e+01 7.978004000000000318e+00 3.524394000000000027e+00 5.647564000000000028e+00 7.360064000000000384e+00 2.727764000000000078e+00 1.117012399999999950e+01