-7.780507033735942969e+04
-7.778511515128645988e+04
-7.780267766474395467e+04
-7.781476933803439897e+04
-7.781529390404211881e+04
-7.780021404241680284e+04
-7.780050285903217446e+04
-7.781271834687860974e+04
-7.780535377768457693e+04
-7.780087379329102987e+04
-7.779235343682680104e+04
-7.779828096586583706e+04
-7.781484996608682559e+04
-7.779603166222356958e+04
-7.780224638762018003e+04
-7.779908796179768979e+04
-7.781142025957554870e+04
-7.781543885119380138e+04
-7.781001079405720520e+04
-7.779494584944768576e+04
-7.780425897799002996e+04
-7.780273071177078236e+04
-7.781631225784600247e+04
-7.779316134518176841e+04
-7.779416658017387090e+04
-7.779892134609517234e+04
-7.780536064893711591e+04
-7.778610586084365787e+04
-7.780622904524278420e+04
-7.779497828615417529e+04
-7.780646816418683738e+04
-7.780981040946833673e+04
-7.780983384536375524e+04
-7.779396367247019953e+04
-7.780726556412129139e+04
-7.780351971227032482e+04
-7.779877464656322263e+04
-7.780645656964996306e+04
-7.780794206373335328e+04
-7.779246884600697376e+04
-7.781043831348724780e+04
-7.780803709807193081e+04
-7.781283733024557296e+04
-7.778784246127490769e+04
-7.779484918484323134e+04
-7.779597436724194267e+04
-7.779552115225903981e+04
-7.780800044787881779e+04
-7.780163403397823276e+04
-7.780437735313542362e+04
-7.780055005990529025e+04
-7.779910267671682232e+04
-7.780997981044706830e+04
-7.778866052501914965e+04
-7.781621575262409169e+04
-7.780520786980046250e+04
-7.780633065566048026e+04
-7.780050119978112343e+04
-7.780259771964290121e+04
-7.779960291263404361e+04
-7.779793090004306578e+04
-7.780373234103615687e+04
-7.780181332851687330e+04
-7.781070749119238462e+04
-7.780620493623986840e+04
-7.780844347259843198e+04
-7.781459468326796195e+04
-7.780510642910280148e+04
-7.780942307516024448e+04
-7.779140489634954429e+04
-7.780526997956096602e+04
-7.781093962974875467e+04
-7.781637002752583066e+04
-7.778892026314634131e+04
-7.781147807552060112e+04
-7.781124920621060301e+04
-7.781062116188823711e+04
-7.780480162931578525e+04
-7.780355042707499524e+04
-7.779767501061882649e+04
-7.780964143235895608e+04
-7.781212046550045488e+04
-7.779527931208974042e+04
-7.779862190390696924e+04
-7.780920861732796766e+04
-7.781013176226516953e+04
-7.780089989432430593e+04
-7.780069835607019195e+04
-7.781501933944615303e+04
-7.781192324416786141e+04
-7.781524485036860278e+04
-7.780256677976514038e+04
-7.780036530104500707e+04
-7.779365289597165247e+04
-7.779988153635089111e+04
-7.780954606837047322e+04
-7.780630871156106878e+04
-7.777755311613998492e+04
-7.780131715210599941e+04
-7.779071461856218230e+04
-7.779815295206570590e+04
-7.780143886186576856e+04
-7.781549824135770905e+04
-7.780948696004350495e+04
-7.781398248306396999e+04
-7.779991905310207221e+04
-7.780979641235602321e+04
-7.781190936482738471e+04
-7.780897077195598104e+04
-7.780043761253003322e+04
-7.780627300158400612e+04
-7.779681299147913523e+04
-7.780176635724978405e+04
-7.781580735808628378e+04
-7.780051472835497407e+04
-7.779571168278348341e+04
-7.780178390410367865e+04
-7.779672632482901099e+04
-7.781663678368496767e+04
-7.780173181016337185e+04
-7.780563642401440302e+04
-7.780755703838393674e+04
-7.779815459592570551e+04
-7.781353826585292700e+04
-7.780826252977014519e+04
-7.781166175920772366e+04
-7.781393646810311475e+04
-7.781188840354810236e+04
-7.780148162952632993e+04
-7.781111860409026849e+04
-7.779412631133811374e+04
-7.779955978100505308e+04
-7.780091419937375758e+04
-7.780469933643583499e+04
-7.781187333719292656e+04
-7.781047115488641430e+04
-7.779741944824303209e+04
-7.780822923813074885e+04
-7.781468749507176108e+04
-7.781687017758884758e+04
-7.782306255420717935e+04
-7.779490858600637875e+04
-7.780181296201812802e+04
-7.779560005027925945e+04
-7.780945766386258765e+04
-7.781326039284850413e+04
-7.778743533300491981e+04
-7.781134983973791532e+04
-7.781913891691662138e+04
-7.779934971515661164e+04
-7.781009035642069648e+04
-7.780667882813181495e+04
-7.780273473521563574e+04
-7.782365932429448003e+04
-7.779576380690440419e+04
-7.780233415945213346e+04
-7.781988885752939677e+04
-7.780631810836691875e+04
-7.780030344665228040e+04
-7.779265974734534393e+04
-7.780705139896867331e+04
-7.780232929203906679e+04
-7.780243494656724215e+04
-7.780476315044422518e+04
-7.780522584606135206e+04
-7.780674929396198422e+04
-7.780803767048618465e+04
-7.780118522387393750e+04
-7.779522777502441022e+04
-7.780307235983632563e+04
-7.780617065676409402e+04
-7.780375245680284570e+04
-7.781208616188247106e+04
-7.779675869671349938e+04
