-3.820006553234068791e-01 -2.189538263404415375e+00 -1.912808350397868340e+00 -5.766418710507040579e+00 -2.164854128353754792e+00 -9.209746278180830359e+00 -1.441908196380039309e+00 -6.555431714774340612e+00 3.243493185929988698e-01 -4.635113171421554767e+00 -1.700390474521937367e+00 2.018192735483850531e-01 -3.563317876805744966e-01 1.491376225292264879e+00 -1.521429852628803703e+00 2.517121515821000521e+00 -1.069955413041506764e+00 -6.510006488807102976e+00 2.030763374099113339e+00 -1.509927764575699216e+00 -3.549586642127541491e+00 1.985383399551255756e+00 8.894989232054863887e-03 1.263360493688740149e+00 -5.665097182972363754e+00 -5.168514277353484232e-01 2.444104751107991191e+00 -4.876817457387277455e-01 -2.365637761463166289e+00 -8.478028255716326678e-01 -3.539712576730737137e+00 -4.378992194618169798e+00 5.886542202793762613e+00 3.325439392660261451e+00 1.573401622006451506e+00 4.423795727789617160e+00 -4.180895878755070072e+00 1.352953161852743058e+00 -1.817963946482508364e+00 1.881859979087241230e+00 7.057112604162822933e+00 2.466314970492366143e+00 4.972930443707277881e+00 -2.451300241009953806e-01 -3.331031028277636974e+00 8.027663504345168288e-01 2.905643003521079848e+00 4.242181212994029949e+00 7.031180969755187471e-01 -1.495100211418900482e+00 4.671053082822108848e+00 -5.857387947417385554e+00 1.735334854696149565e+00 -3.196510899759568591e+00 3.445598880394216579e+00 1.476319329714522066e+00 1.346318172486272724e+00 -2.353392624535028954e-01 1.853888945483493922e-01 -2.033884179374251477e+00 -1.025224899205874785e+00 -2.421680615922914726e+00 -2.283479181594215979e-01 -1.013508895352068562e+00 3.810418908753107736e+00 -2.498473303050710470e+00 2.203984779041214370e+00 2.439765242833664249e+00 1.170731352440260581e-01 1.027423346856690145e+01 -1.546655976270664867e+00 5.873111272989621767e+00 2.122664378872128221e+00 4.781991051195533693e+00 2.561793408499708935e+00 2.009701409481484902e+00 1.044980229088929846e+00 1.742790026038867124e+00 3.657021225043805224e+00 8.805648532021493891e-01 -1.452480059232497123e+00 2.292335604275663741e+00 2.644253321684070901e+00 1.970785703036076031e+00 1.518639691247538392e+00 -2.438747600118307268e+00 -2.676184882924844910e+00 7.037367044472588040e-02 1.347858263407188728e+00 1.185628839608827034e+00 2.440388992512152022e+00 -1.776501305034997147e+00 9.227535742424264331e-01 -3.719570513701333514e+00 1.380106584583616902e+00 -5.600994433656374810e-02 -5.999772566935283047e-01 -2.622396886123933069e+00 -5.251768661480354261e+00 3.662200969900696101e+00 1.915228272893304329e+00 -2.325459643261214016e+00 2.032631023589853481e+00 -5.771602569129330451e-01 2.555676753573399990e-02 -2.203217047573792886e+00 -2.514907795816144542e+00 4.721675022928502052e+00 -8.071619087623932431e-02 -4.870236461191657540e+00 -1.524602594192092930e-01 5.360729451359315334e+00 -9.823332385031966485e-01 -2.038018513599348047e+00 5.492977238715605059e-01 -1.393136936482118060e-01 4.621273436180976191e+00 -3.308511248047055209e-01 -1.911975312904751548e-02 3.212277934089159181e+00 -2.832896718882996545e+00 -4.464607365862877764e+00 1.595198922188991286e+00 -1.907347326831882253e-02 -1.039440529759705217e-01 1.763070375230855413e+00 2.020951529403955504e+00 8.913305772489931167e-01 1.383650079253410548e+00 -1.477011470742753407e-01 2.739862885963478156e+00 -3.965658016698738741e+00 -3.085417636742364245e+00 3.830021515095758833e+00 -3.902965774693625267e+00 5.282765883755083713e+00 2.720952420649058734e-01 1.430807714673924869e+00 -3.850949268117273672e+00 -7.518749586945466801e-01 5.042890166508819938e-01 -5.726155745893752869e-01 1.052798954448705082e+00 -1.467094725029943758e+00 -1.130504897494880145e+00 -7.231485349195719836e-01 -3.397427201803068897e+00 -2.866836311858721231e+00 -9.979789167535435546e-02 1.500162713961944672e+00 2.897786225831372242e+00 -1.984249028742727794e-01 3.210502844319876203e+00 1.769761414650875109e+00 -1.788112407871151444e+00 2.300839785794898340e+00 -3.960482385607245970e+00 4.114326412862243210e+00 -4.323804489140552043e+00 -3.150177045860024450e+00 -6.120197392537416015e+00 -3.924257595952873157e+00 -1.695208158561673395e+00 1.809877312151181306e+00 2.005782019498439261e+00 9.187843048539287016e-01 4.097644579952247845e+00 -1.939479434135813918e+00 1.643817972767182889e+00 7.853280989119451605e-02 -1.722418659787445794e+00 5.868355760189410297e+00 -4.966752082299997539e+00 -1.662670845366028272e-01 -9.388527951279145300e-01 -1.915414420777568294e+00 -1.474476877036845046e+00 9.772393684989918450e-01 2.264888561539499801e+00 1.123435391658235138e+00 3.504352192030641966e+00 -7.220223916418404275e-02 5.453757627851411049e-01 2.666075304458999096e+00 2.112805225874892390e+00 -2.731268715826159710e+00 1.994965387604794027e-01 2.714597681550334762e+00 1.574723169140593182e+00 2.845084777316235769e+00 5.222193773592019861e-01 -2.232862383694569353e+00 -8.991297622231275710e+00 1.550227753077570547e+00 -1.609508140905628659e+00 -3.531771466850368579e+00 -4.743821993169881956e+00 -1.306446529806479129e+00 2.207079873282614457e+00 2.720896884816184969e+00 -3.599447021414611814e-01 -2.622392258137860033e+00 1.605011795325498536e+00 -1.945146145971705209e+00 1.302898407150612670e+00 3.909505633235265343e+00 -2.645217999669926545e-01 -3.416054845746367974e+00 -1.205585229775714362e+00 1.565259451842250016e+00 -5.653961734260365191e+00 1.639351966206863631e+00 4.693246847144890488e+00 5.592913455752470675e+00 4.382255439020217302e+00 -1.996628891487653323e+00 -1.899220583287923869e+00 3.069295275926511746e+00 -3.037163168622579956e+00 9.010565470914653208e-01 -3.407786691516849764e-01 1.787978196275038290e+00 1.199604843328217485e-01 -1.068009602008202386e+00 -2.160318187781667731e+00 1.362175709654622202e-01 -5.876045416159820789e+00 2.139152864808412158e+00 4.011317213072992383e-01 3.331701572037528702e+00 3.895359422472528088e+00 -9.935154812965985016e-02 1.189807396811953133e+00 -9.024068905833936283e-01 5.586007472090400938e+00 1.241524626955593291e+00 1.331785267776113280e-01 -7.498843590404705495e+00 4.386709104284341798e+00 4.047855163118295962e+00 -5.927295219710100760e+00 2.774314128510591893e+00 8.084829416758599896e-01 -3.035866304080827027e-01 2.875022705000952250e+00 1.479986237346258449e+00 -2.492274372816439598e+00 1.230736277199060202e+00 -3.471643129129626359e+00 3.336036966546457094e+00 -2.922362374540332652e-01 -2.879720110864914417e+00 -1.210107286389582537e+00 -7.770203496904700691e-01 7.053454952503232178e+00 1.279975477911016180e+00 -3.682267917512657363e+00 -5.929987164942486899e+00 4.587299904640717685e+00 -5.660119012619980516e+00 -2.854707903023755211e+00 -1.289221165643259503e+00 4.298010665873751995e-02 2.225975940418139842e+00 2.804665489617819141e+00 4.753705828759506424e+00 2.342667009700817093e+00 3.211274175332021752e+00 -1.536618902919960838e+00 -7.992264553094465818e-01 -3.451630174688514963e+00 -8.279290192451123076e+00 2.772059270851755297e+00 2.834931490093034689e+00 5.415407049927568606e-01 -4.326667155636958917e+00 3.013464794605440478e+00 -1.989502307156109318e+00 -2.238418538085386267e+00 -7.142120480790636883e+00 1.212357310374076569e+01 8.573704154462778726e-02 1.841166097548501135e+00 -1.017489477595411085e+00 -1.826644505693186815e+00 3.741179094896234680e+00 -6.338895445514229898e+00 -4.313833236036218044e-01 8.828603342942926979e-02 1.390724213076129034e+00 -3.602177533197604031e+00 4.299926652107920688e+00 1.205062781570154895e+00 1.535138461597317150e+00 -9.173326598890719774e-01 2.570991273709199554e+00 -1.042492429464425108e+00 1.853965050143358884e+00 -2.591588382836841564e+00 2.315961473177661656e+00 -2.841719202999909655e+00 3.453993532909726660e+00 8.112587048782321508e-01 -1.648380652814357139e-01 1.119313398729332887e+00 1.874094218456966443e+00 2.775117341204571986e+00 -3.209606043463089642e-01 1.133667354644674496e+00 -3.435555122174740905e+00 2.572419778743691765e+00 1.554530237463314646e-01 7.460472957874545452e-01 2.486805635940332326e+00 -2.346201762619139153e+00 8.984026541890123285e-01 -3.188160984442762302e+00 8.598484448779619704e-01 -2.242006255733209663e+00 -1.802232393379475495e+00 -1.161687753433199299e+00 4.387552426190953092e+00 -1.483046878802449564e+00 -9.012288110175111777e-01 -4.678174010726229959e+00 -1.072890584653055202e+00 1.597036746880595270e+00 -6.599173896473077283e-01 -2.862157417939050208e-01 -1.548678406184508693e+00 -2.159333455189496043e+00 2.607681947294907321e+00 2.775198588071184691e+00 -3.103521804038754439e+00 -4.418184037565926411e-03 -2.049606476505138053e-01 -2.596974844404987159e+00 2.824776145987134779e+00 -1.655044952759289201e-01 1.815580533654980400e+00 5.775176917039608782e+00 3.176171929410656958e+00 -2.624350410467358508e+00 -7.544080097384304739e-01 -3.003518738314169489e+00 9.893117272804089479e-01 2.694893773734756248e+00 4.347373793768325889e+00 -6.199876400312658298e-01 7.261927213141703419e-01 -6.454960708235721323e-02 7.165896502129665002e-01 1.966941389271545937e+00 3.052384100595572747e+00 -3.033015464659939653e+00 4.699063197197137498e+00 1.057043331898201100e+00 2.542482879500324255e+00 -2.894299809656477596e+00 -3.378546561287786076e+00 -1.093439357037269799e+00 2.005828813579842773e+00 -1.364633170259315964e+00 -3.508500410213957643e+00 -2.041950244878587561e+00 4.246182364064363113e-01 -2.843286547616588500e+00 7.465697439930141233e-01 -2.267489489712452233e+00 -1.790783784276546831e+00 1.896404710872920119e-01 1.322940672170185517e+00 3.578492528918009175e-01 2.705063001798874711e-01 1.169677200056995908e-01 -3.714626796134159914e+00 -1.927017810303601086e+00 7.318645753568091550e-01 2.968207718798851147e+00 -4.231803211335957826e+00 2.841320681976968299e+00 -4.975047490225278146e+00 4.559397262386712946e+00 2.446976159355869207e+00 2.337654900783899148e+00 -2.055920077949881630e+00 -4.097066595913814169e+00 1.993575963341583712e+00 -3.883857334419423157e+00 1.846916113133703963e+00 1.670509111111444289e+00 4.344829429869597526e+00 -8.731934998294180739e-01 2.103129135437871611e+00 -5.652447354373186794e-01 -2.451558894009359335e+00 1.448066503181004050e+00 -1.960154704806020387e+00 -8.945480560109867474e-01 -1.196936038026196414e+00 -2.751762466598174584e+00 2.610044277074769603e+00 2.216756992160984208e+00 1.105634100339280668e+00 1.678220878570869101e-01 3.118788501651800438e+00 2.503509066118667192e+00 4.931892548537121002e+00 -5.191206835730786118e-01 -4.245112785060855543e-01 -1.248070141924654930e+00 -1.719770937533089850e+00 1.620525318862431341e+00 -2.199588706492662915e+00 -2.007476376621784020e-01 3.403551570039499818e+00 -5.640676843127857554e-01 3.844426893078575769e-01 6.830151539163238361e-01 -8.465692101728755636e-01 -2.296988787161596601e+00 -2.003901514490829872e+00 4.090233117366885551e+00 -2.298990648248449453e+00 -5.710801630765996784e+00 -2.966425944160796524e-01 -1.585124824949704303e+00 4.383552303561970120e+00 -5.268024205450970499e+00 6.376979142907872600e-01 -2.669602344067200095e-01 2.523456200313408448e+00 1.761131249066323567e+00 2.196745580381897156e+00 -1.334376939976920307e+00 1.861652135010394726e+00 -9.259581974875509269e-01 2.804612524888318248e+00 -7.144093545519702992e-01 -1.002918520555319493e+00 -4.578971072371577300e+00 2.314293341308729435e+00 -9.131244321530120445e+00 -4.279874102674852687e-01 -3.210408741936394694e+00 -4.191309875860375900e-02 -1.682419490380311133e+00 -7.081281490097371956e-01 -1.444430963010427948e+00 -1.060056150831639066e+00 5.327681002812956201e-01 1.193989553559802852e+00 -2.057221570477707040e+00 1.646779883853819237e+00 -1.574368871095681133e+00 -3.100539838345801602e-01 -2.441348528291260145e+00 -6.052845282777599145e-01 2.728249212023949877e-01 -6.808765101299834033e-01 6.410172087463840429e-02 -3.776637181524535869e-01 -3.856972849101450773e+00 8.248603559463950630e-01 3.947160984806829198e+00 7.235372343276253559e+00 -2.555167675105384451e+00 -1.232997305505994179e+00 -7.341276605464422955e-01 7.071074209703320790e-01 -2.930343079412658369e-01 1.823208997365093342e+00 3.640179983724633583e+00 -5.744758707244662865e+00 -3.472999643269651049e+00 -1.444574944799361660e+00 1.057854772122977516e-01 1.670609898363698109e+00 4.654453525220075605e+00 -3.438487208462240652e+00 -3.851667120179242954e-01 -1.129120615438417574e-01 -8.567106703205565887e-01 -2.923738429065999345e+00 -7.981311652722009597e-01 4.034721967084841765e+00 -6.017744579518259362e-01 -1.796050946648146684e+00 1.090726842977893574e+00 1.508124906889979133e+00 -4.690191347895447671e-01 -9.852673816733958922e-01 5.030487163833530229e-01 -7.314573125823966571e-01 2.144282730259850389e+00 -1.831029779607567631e+00 -3.243253044874873758e+00 -1.641454100325296095e-01 2.453409059997157637e+00 -1.493331806518389593e+00 -1.356759423287340560e+00 -1.342741253472619523e+00 3.958522176395048442e-01 -2.231064668215596847e-01 -1.775220895554836531e+00 2.264137285133670741e+00 9.993313171281709151e-02 1.304533628896359820e+00 -1.916843954253410143e+00 9.072724466080036576e-01 1.407281604582830914e+00 -5.178775036697709666e+00 2.114314977775997306e+00 -6.094224106255123452e+00 1.632130251050488479e+00 -2.900683345112988309e+00 -6.114299795618557409e-01 -1.307549018933171547e+00 8.066636289285477046e-01 3.098924156985696232e+00 2.488122040867726259e+00 -2.842472536288437990e+00 -2.120944310715044967e+00 1.826624965307545867e-01 2.353095919205690389e+00 4.122944237150600322e-01 -2.001257391781197104e+00 3.970671154057005214e+00 1.071906880502233150e+00 2.419089457942783239e-01 2.427831209413758629e+00 7.388060402454383890e-01 -7.550584988920059359e-01 -2.161819712151976658e-01 -2.514783354412851502e+00 2.877314072327697314e+00 -6.626525294163734259e-01 -4.110523236751694398e+00 1.922601168928059767e+00 1.155099043927457547e+00 -1.816521557489797045e+00 5.483859591931377508e+00 4.617680576326405273e+00 4.870158299649093303e-01 1.206578704119356971e+00 1.939717518308229360e-01 1.037082313745240958e+00 9.808687380214708984e-01 3.562567114620590614e-01 -3.052732742213061790e-01 -4.558181644711573277e+00 5.259149270825231426e+00 -7.143239939199595989e-01 -1.175136166740282873e+00 -9.091483236295400117e-01 3.396421900383906678e+00 -1.074821997507466209e+00 5.860245471707044906e+00 2.322424712838760730e+00 1.567245372088185817e+00 -1.614879175853530802e+00 -1.004443699076667418e+00 -2.788089586166825118e+00 -2.058330744473171325e+00 -6.278634438859399536e-01 2.413024225083950203e+00 -7.624005416862758011e-01 -1.068962967139213571e+00 4.514158184303740939e-01 1.220479117399557278e+00 1.868976180081047822e+00 3.239964603659762687e+00 -2.487531715533098264e+00 -1.152998966691724414e+00 -1.267358559435024734e+00 5.943007746648166778e-01 -1.569734200154039971e+00 3.116612833976877273e+00 1.856071812247863662e+00 -4.458442374193142266e-01 -5.197212933212020936e-01 2.497400124502479890e-01 5.973866129340710263e-01 -5.830938492790261884e-01 -2.652290076609945313e+00 -3.292274216020730115e+00 -1.844660227033517508e+00 -3.456785236953016760e+00 -4.530736658858108279e-01 -1.345542727708729958e+00 4.070571375646637513e+00 1.068269283448957774e+00 -1.123127373474051893e+00 1.150012887233374137e+00 1.872050705495457601e+00 4.856210578066814776e+00 -4.225056636083063921e+00 -2.152325141613147697e+00 1.626175575636729986e+00 9.425664968410548197e-03 -2.900795959440761185e-01 -1.186871196759055058e+00 3.300186529543312375e+00 8.712044942594338037e-01 5.388005772831457207e+00 4.393942132295561187e+00 2.016702009747711966e+00 -3.161372144170295773e-01 1.282717816769528563e+00 1.783408831359092117e+00 9.993426299830155957e-01 6.916422341768270476e-02 3.601651999667996762e+00 1.084925405325214642e+00 4.034977534760199269e+00 7.271347735903367360e-01 1.400751516234012284e+00 -1.507147887607928949e+00 4.586754830725467968e+00 -5.094768347723660717e+00 1.399723589105160704e+00 -1.707841017878582335e+00 3.737723531961826495e+00 2.546942201191871202e+00 1.433197812370224256e+00 -1.348365799213180116e+00 -1.173458778899204802e+00 -6.388466832782082605e-01 1.031634659916798868e-01 2.287163572728894589e+00 -2.069448195461553119e+00 4.940179214710931355e+00 3.437524073138408798e-01 -1.713943274625998159e+00 -2.315411771276339792e+00 -6.643304314781259823e-01 -2.427824010324311388e+00 2.705756685489129953e+00 -2.748764045843630210e+00 1.198753808111484576e+00 1.297097483718608224e+00 6.975367457716382669e-01 -7.146638937859781660e-01 2.694272595159641792e+00 -9.162214290109086390e-01 5.743639248835703537e-01 3.693505181918258717e+00 -4.881528747209458174e+00 6.187483682050863854e-01 4.136823053162460795e+00 -4.647114053529179500e+00 3.399262455391298676e+00 6.261829707208136364e-01 -8.435687325356320265e-01 -5.149232544711885851e+00 2.032809972384670871e+00 7.221696130210251141e+00 -3.432547959668724946e+00 1.026654432681716633e+00 3.028134482015086615e+00 1.622170825021673757e-01 -2.919740877540389690e+00 1.041991064306530962e-01 -9.887748808959561098e-01 1.609189838307949927e+00 -6.820571607992398366e-01 3.580770526507210394e-01 -1.184562345929367932e+00 2.156955184568715989e-01 -5.172276315810051983e+00 1.443395322571454642e+00 -2.527672295625792986e-01 7.257458635478010178e-01 3.311483443547186267e-01 2.628336134917448608e-02 -1.641662873919249810e+00 -2.448365069398404703e+00 2.040822044718157091e+00 -3.138384937346354153e+00 -9.939983345102011425e-01 9.912750218166549443e-01 -8.777263550774563328e-01 -8.588353273045434833e+00 -5.111044974741940639e-01 3.017131188016502374e+00 -8.705246945273970027e-01 -3.130025766057402237e+00 -1.348751978939927154e+00 2.849330697427755688e+00 2.710656180078274691e+00 -2.235082788568197198e+00 5.409810786324118936e+00 -1.418429908811698281e+00 -5.343153902916581988e-01 1.817521202481537035e+00 -2.430426481159288610e+00 2.950999323917898653e+00 -3.594029706605980756e+00 7.551320324484971369e-01 2.039398681890412401e+00 -1.251728307804920837e+00 -5.799659991806437986e+00 2.464739398344891530e+00 -3.409927392185888806e+00 6.474166850438128895e-01 -2.834236263740754769e+00 3.536203020625478199e+00 4.691379197654149680e-01 -2.541435411985831561e+00 -4.389269409023988100e-01 -2.194519004860172318e-01 3.729020347041457573e+00 -1.872885799871273127e+00 8.849866367844386739e-01 -3.026387674382915893e+00 -4.444157838068893085e+00 3.100941958913466578e+00 2.230795730802696220e+00 -9.334946156968811914e-01 -9.317771186431720309e-01 2.601540095555535115e-01 -3.050249056353955268e+00 -5.713295086817924417e-01 6.714868406088061903e+00 -9.992652911935312687e+00 -1.524819595316843079e+00 2.194345198272102060e+00 3.521293192160718011e+00 -9.338648545827108460e-01 1.264133367362909821e+00 4.669401406014768718e-01 -1.802695191986762646e+00 4.930674873979282502e+00 -5.285521078130465789e+00 1.191922386447254567e+00 -4.435529215146365445e+00 2.002158306403382770e+00 -3.271999009035489347e+00 -1.521008191675497834e+00 -8.936574258022969008e-01 1.611042575399122212e+00 2.807152260800973576e+00 -6.583127640317090190e+00 -2.618890415342721933e+00 -1.576746627495786424e+00 1.018898442244262403e+00 -3.130520446346524377e+00 3.521770903167572797e+00 -1.066341470139270386e+00 1.277052647595661838e+00 -5.269202285016852727e+00 -3.808510121608386978e+00 -1.334117772756839404e+00 -6.467553972560673436e-01 -3.906695931468358474e+00 -5.108227045444239112e-01 1.583052001409733567e+00 -2.332173822611597558e+00 -2.354513625606012850e-01 -9.818298164626034774e-01 3.190323796600816664e+00 -1.347756447713585715e+00 3.307712663339147596e+00 -2.572898003971221259e-01 -2.988455672088329074e+00 1.710575643426973436e+00 -2.160446742950358420e-02 -3.078472058088336905e+00 -2.953333885781323498e-01 -4.215468991602103088e+00 -5.310408330347658051e-02 6.081254946616920343e+00 3.783064939959076556e-01 4.981054101927187006e+00 2.333965367442472905e-01 2.721191019042149328e+00 5.210037596840616514e-01 -6.387793203698144406e-01 4.124409766073675598e-01 2.809341812434116084e-02 1.446456478248320243e-01 -1.909601156049369752e+00 1.059712137200222282e+00 5.361568145279853592e-01 -1.112886668736141615e-01 4.719955468992093728e+00 -5.967633774762579613e-01 -2.302487348836840031e+00 -1.692388172381271483e+00 1.262621044358430700e+00 -9.455577185061525558e-01 9.593645436235460622e-01 -1.462141237269949379e+00 -1.601303235819105941e+00 -7.661934333833295696e-01