1.135019999999999918e+01 7.845240000000000435e+00 4.721700000000000230e+00 1.178299999999999947e+01 3.185420000000000140e+00 1.168439999999999923e+00 8.454969999999999430e+00 7.206039999999999779e+00 7.158389999999999809e+00 4.382079999999999864e-01 1.056789999999999985e+01 1.026350000000000051e+01 1.451699999999999990e+00 2.447039999999999882e+00 4.013720000000000176e+00 9.907669999999999533e+00 6.124399999999999622e+00 1.478020000000000067e+01 2.711170000000000080e+00 1.164429999999999943e+01 5.552240000000000508e-01 5.698409999999999975e+00 7.024860000000000326e+00 1.091799999999999926e+01 2.427220000000000155e+00 1.263279999999999959e+01 1.323649999999999949e+01 2.450919999999999987e+00 7.816359999999999975e-01 1.110100000000000087e+01 1.686280000000000001e+00 1.262800000000000011e+01 7.378140000000000143e+00 2.700810000000000155e+00 3.723520000000000163e+00 5.871629999999999683e+00 1.408210000000000051e+01 1.003069999999999951e+01 4.770990000000000286e+00 1.780240000000000045e+00 2.063919999999999977e+00 1.335490000000000066e+01 1.069810000000000016e+01 3.822679999999999967e-01 1.289269999999999960e+01 5.507789999999999964e+00 3.945359999999999978e-01 1.546230000000000082e+01 6.217649999999999899e+00 4.680200000000000138e+00 9.809290000000000731e+00 5.170020000000000060e+00 9.587830000000000297e+00 7.139000000000000234e+00 1.406419999999999959e+01 7.284799999999999720e+00 1.285210000000000008e+01 1.160019999999999918e+01 1.151009999999999955e+01 1.179780000000000051e+01 8.433429999999999538e+00 1.316019999999999968e+01 1.142139999999999933e+00 3.918979999999999908e+00 7.620330000000000048e+00 1.470400000000000063e+01 5.998859999999999637e+00 7.901930000000000121e+00 2.788630000000000275e-01 4.298549999999999649e+00 8.597799999999999443e+00 1.235299999999999976e+01 2.788609999999999811e+00 1.183179999999999943e+01 9.633630000000000138e+00 1.553410000000000046e+01 1.414090000000000025e+01 1.167130000000000045e+01 1.341080000000000050e-01 1.419669999999999987e+01 8.750869999999999482e-01 1.278389999999999915e+01 1.152810000000000024e+01 3.217179999999999929e+00 1.363139999999999930e+01 1.310929999999999929e+01 7.383750000000000036e+00 1.519759999999999955e+01 5.686300000000000132e+00 1.137770000000000081e+01 8.041740000000000776e+00 8.183829999999999716e-01 2.798160000000000203e+00 4.957699999999999996e+00 1.060229999999999961e+01 4.072770000000000223e+00 1.091549999999999976e+01 6.492670000000000385e+00 2.794649999999999856e+00 1.492719999999999914e+01 1.248809999999999931e+01 9.805979999999999919e+00 1.054679999999999929e+01 6.558340000000000281e+00 8.385500000000000398e+00 1.802429999999999977e+00 5.969739999999999824e+00 1.461270000000000024e+01 8.075279999999999347e+00 1.468110000000000070e+01 4.260900000000000354e+00 5.449960000000000360e-01 9.959730000000000416e+00 3.936479999999999979e-01 1.378309999999999924e+01 1.343120000000000047e+01 1.762969999999999926e+00 4.472949999999999982e+00 1.591440000000000055e+01 1.896709999999999896e+00 1.475000000000000000e+01 1.575309999999999988e+01 1.351110000000000078e+01 6.486089999999999911e+00 7.806580000000000297e+00 8.709920000000000329e+00 1.401769999999999960e+01 3.921559999999999935e+00 1.137880000000000003e+00 1.173390000000000022e+01 7.595909999999999940e+00 1.402999999999999936e+01 1.187379999999999924e+01 1.748140000000000027e+00 3.233400000000000052e+00 5.973659999999999748e+00 8.633150000000000546e+00 2.921990000000000087e+00 1.528299999999999947e+01 5.109589999999999854e+00 8.912219999999999587e+00 5.746290000000000120e+00 3.359220000000000095e+00 7.838639999999999830e+00 9.041069999999999496e+00 4.601499999999999702e+00 2.225999999999999979e+00 4.875549999999999606e+00 1.084249999999999936e+01 1.091109999999999935e+01 5.506269999999999776e+00 3.454029999999999934e+00 5.281679999999999708e+00 7.790300000000000225e+00 8.290770000000000195e+00 4.996410000000000018e+00 2.432170000000000165e+00 1.289670000000000094e+00 8.424739999999999895e+00 6.665980000000000238e+00 1.247860000000000014e+01 4.375740000000000407e+00 1.509929999999999950e+01 5.623890000000000278e-01 5.014459999999999695e+00 1.508810000000000073e+01 2.218469999999999942e+00 2.999410000000000132e+00 8.104580000000000339e+00 7.978290000000000326e+00 1.451290000000000013e+01 1.249329999999999963e+01 3.589999999999999858e-01 1.492060000000000031e+01 5.515760000000000218e+00 1.457809999999999917e+01 7.855190000000000339e+00 9.380649999999999267e+00 6.375700000000000145e+00 1.082869999999999955e+01 8.320529999999999760e+00 3.953349999999999920e+00 1.104659999999999975e+01 3.042069999999999830e+00 4.806560000000000277e-01 1.459549999999999947e+01 8.817069999999999297e+00 1.572799999999999976e+01 8.065799999999999637e-01 7.012830000000000119e+00 1.338189999999999991e+01 1.500849999999999973e+01 2.977460000000000218e+00 1.089520000000000088e+01 5.994379999999999598e+00 9.160750000000000171e+00 2.294220000000000148e+00 1.298380000000000045e+01 7.755220000000000447e-01 1.081630000000000003e+01 1.413260000000000005e+01 1.568900000000000006e+01 1.428650000000000020e+01 6.362119999999999997e+00 6.753419999999999979e-01 1.554560000000000031e+01 1.470899999999999963e+01 1.058859999999999957e+01 1.033619999999999983e+01 7.700199999999999712e+00 1.026800000000000068e+01 9.916449999999999321e+00 1.006569999999999965e+01 1.787190000000000056e+00 1.454359999999999964e+01 1.162320000000000064e+01 7.277999999999999581e+00 1.291680000000000028e+01 8.401999999999999247e+00 6.328640000000000043e+00 8.766650000000000276e-01 8.335079999999999600e+00 3.521840000000000082e+00 7.133190000000000364e-01 4.017820000000000391e+00 9.695339999999999847e+00 1.114140000000000086e+01 1.862370000000000081e+00 1.137100000000000044e+01 1.014070000000000071e+01 4.102569999999999828e-01 3.850400000000000045e+00 7.333299999999999541e-02 6.650540000000000340e+00 1.150990000000000002e+01 9.864919999999999689e+00 1.383179999999999943e+01 1.068290000000000006e+01 9.977550000000000807e+00 3.466079999999999828e+00 9.056829999999999714e+00 8.452780000000000626e+00 1.212630000000000052e+01 1.272250000000000103e+00 3.559419999999999806e+00 7.738669999999999938e+00 2.333169999999999966e+00 1.416089999999999982e+01 1.480560000000000098e+00 1.317609999999999992e+01 6.240709999999999980e+00 8.049920000000000186e+00 7.478469999999999729e+00 1.385239999999999938e+01 1.240339999999999954e+01 8.433400000000000674e+00 1.498789999999999978e+01 1.070090000000000074e+01 1.267709999999999937e+01 1.581760000000000055e+01 1.478939999999999921e+00 7.806040000000000312e+00 1.237780000000000102e+00 1.504729999999999990e+01 1.087739999999999974e+01 8.664629999999999832e-01 7.009000000000000341e+00 1.541280000000000072e+01 7.778739999999999988e+00 1.440720000000000001e+00 8.838469999999999160e+00 2.937989999999999768e-01 8.520569999999999311e+00 9.903249999999999886e+00 3.762300000000000200e+00 5.760900000000000049e-02 7.389529999999999710e+00 3.263349999999999973e+00 3.513840000000000074e+00 1.002180000000000071e+01 1.466539999999999999e+01 5.631120000000000125e+00 1.288090000000000046e+01 1.357240000000000002e+00 5.879269999999999996e+00 9.534750000000000725e+00 1.251859999999999928e+01 6.994769999999999932e+00 1.268159999999999954e+01 7.915449999999999875e+00 1.690849999999999964e+00 4.433230000000000004e+00 1.258970000000000056e+01 1.462979999999999947e+01 6.932620000000000005e+00 1.214819999999999922e+01 1.090010000000000012e+01 1.283360000000000056e+01 1.089080000000000048e+01 6.793149999999999800e+00 4.028229999999999866e-01 4.437999999999999723e+00 1.313310000000000066e+01 1.346289999999999942e+01 7.923079999999999679e+00 6.111209999999999809e+00 2.036810000000000009e-01 5.547500000000000320e+00 8.012620000000000298e-01 1.093859999999999921e+01 1.402740000000000009e+01 1.158150000000000013e+01 7.327499999999999680e+00 1.059290000000000020e+01 5.599179999999999602e+00 1.576449999999999996e+01 9.569660000000000721e+00 1.244650000000000034e+01 1.514879999999999960e+01 1.302880000000000038e+01 1.101309999999999967e+01 1.863580000000000014e+00 1.320340000000000025e+01 1.195889999999999986e+01 1.596390000000000065e+01 4.428710000000000147e-01 1.393999999999999950e+01 2.073550000000000004e+00 1.280780000000000030e+01 1.197570000000000023e+00 1.253619999999999912e+01 1.230129999999999946e+01 7.059580000000000410e+00 3.869979999999999976e+00 1.016960000000000086e+01 6.998579999999999579e+00 1.431240000000000068e+00 2.112330000000000041e+00 8.145189999999999486e+00 6.021209999999999951e+00 1.554920000000000080e+01 8.717689999999999273e+00 1.126229999999999976e+01 1.074910000000000032e+01 1.062889999999999979e+01 1.163119999999999976e+01 1.301399999999999935e+01 1.208210000000000051e+01 1.188700000000000045e+01 6.059789999999999566e+00 8.221410000000000551e+00 4.383689999999999642e+00 7.296600000000000308e-02 1.463540000000000063e+01 1.405739999999999945e+01 7.689680000000000071e+00 1.531579999999999941e+00 2.423550000000000093e+00 4.219000000000000306e+00 7.130829999999999558e+00 5.572320000000000384e+00 2.041069999999999940e+00 8.516799999999999926e+00 1.003270000000000017e+01 1.389639999999999986e+00 1.223129999999999917e+01 4.373850000000000016e+00 9.964570000000000149e+00 1.182429999999999914e+01 2.817569999999999908e+00 1.553769999999999918e+01 1.172380000000000067e+01 1.181349999999999900e+00 5.544529999999999959e+00 1.349399999999999977e+01 1.405819999999999936e+01 1.075799999999999912e+01 5.971860000000000390e+00 1.197590000000000043e-01 1.451750000000000007e+01 1.545139999999999958e+01 6.051079999999999792e+00 3.462549999999999795e+00 6.478110000000000035e+00 9.663029999999999120e+00 1.003989999999999938e+01 2.658469999999999889e+00 1.113620000000000054e+01 8.788289999999999935e+00 1.332049999999999912e+01 8.403999999999999915e+00 1.597572199999999931e+01 9.768390000000000128e+00 1.053759999999999941e+01 1.113180000000000014e+01 8.458900000000000308e-01 1.089639999999999986e+01 6.748009999999999842e+00 4.142619999999999969e+00 4.044290000000000163e+00 1.181409999999999982e+01 1.013080000000000069e+01 1.582469999999999999e+01 1.532280000000000086e+01 5.379319999999999879e+00 6.172860000000000014e+00 8.078969999999999985e+00 1.621699999999999919e+00 1.089359999999999928e+01 9.130750000000000810e+00 4.534460000000000157e+00 1.473130000000000051e+00 1.200699999999999967e+01 1.407910000000000039e+01 6.116469999999999629e+00 3.175170000000000048e+00 4.148850000000000371e+00 1.127210000000000001e+01 5.817229999999999901e-01 1.426929999999999943e+01 8.558540000000000703e+00 8.947549999999999670e+00 1.338429999999999964e+01 6.363800000000000345e+00 1.463279999999999914e+00 1.515230000000000032e+01 8.421969999999999956e+00 1.302940000000000076e+01 7.735249999999999737e+00 4.871649999999999814e+00 7.488690000000000069e+00 1.558089999999999975e+01 2.849530000000000118e+00 6.808399999999999785e+00 1.467089999999999961e+01 7.308399999999999785e+00 1.275440000000000040e+01 9.703879999999999839e+00 1.488509999999999955e+01 5.124130000000000074e+00 8.760449999999999626e-01 5.798090000000000188e+00 5.733760000000000190e+00 1.057360000000000078e+01 1.446749999999999936e+01 6.731760000000000410e+00 1.156310000000000038e+01 1.882370000000000099e+00 1.041709999999999958e+01 5.383090000000000375e-01 1.556969999999999921e+01 1.134939999999999927e+01 9.491519999999999513e+00 1.497160000000000046e+01 1.329950000000000010e+01 1.337369999999999948e+00 2.317649999999999988e+00 1.281610000000000049e+01 8.629030000000000200e+00 6.028189999999999937e-01 1.360570000000000057e+01 7.217970000000000219e+00 1.388640000000000096e+00 5.268609999999999793e+00 1.586919999999999931e+01 8.999420000000000641e+00 8.263329999999999842e-01 1.675100000000000033e+00 1.209099999999999930e+01 1.361620000000000053e+00 7.043350000000000222e+00 4.344939999999999913e-01 2.863090000000000135e+00 3.238300000000000178e+00 1.192590000000000039e+01 6.938380000000000436e+00 1.887869999999999937e+00 6.368019999999999570e+00 7.892949999999999910e+00 1.013030000000000008e+01 2.112019999999999786e+00 1.542140000000000022e+01 1.498329999999999984e+01 5.643279999999999852e+00 4.504979999999999762e+00 8.491289999999999338e+00 2.744520000000000071e+00 1.828959999999999919e+00 1.441319999999999979e+01 1.118819999999999926e+00 1.480199999999999960e+01 1.696020000000000083e+00 6.974239999999999995e+00 1.380729999999999968e+01 4.278340000000000032e+00 3.929660000000000153e+00 8.403269999999999129e+00 1.365869999999999962e+01 1.696290000000000076e+00 3.294989999999999863e+00 5.090200000000000280e+00 1.405369999999999919e+01 5.509050000000000225e+00 8.669430000000000192e+00 1.089220000000000077e+01 2.800780000000000047e+00 1.504560000000000064e-01 7.280199999999999783e+00 7.065419999999999590e+00 7.967159999999999798e+00 1.862510000000000110e+00 1.156450000000000067e+01 6.421190000000000175e+00 1.217079999999999984e+01 7.708160000000000345e+00 5.853480000000000238e+00 8.666380000000000194e+00 6.753960000000000186e+00 1.455259999999999998e+01 5.558220000000000383e+00 8.484659999999999869e+00 7.879389999999999894e+00 1.272439999999999927e+01 4.262340000000000018e+00 1.181659999999999933e+00 7.571799999999999642e+00 1.588410000000000011e+01 3.718199999999999950e+00 1.846009999999999873e-01 4.313909999999999911e+00 8.020780000000000243e+00 1.036890000000000001e+01 1.587570000000000014e+01 6.206260000000000332e+00 8.318659999999999499e+00 9.580270000000000508e+00 5.680570000000000341e+00 3.998639999999999972e+00 3.871160000000000156e+00 5.117340000000000444e+00 1.293079999999999963e+01 1.444229999999999947e+01 1.529819999999999958e+00 1.529579999999999984e+01 4.654469999999999885e+00 1.237579999999999991e+01 1.027580000000000027e+01 1.345889999999999986e+01 6.419109999999999872e+00 6.259079999999999977e+00 1.098290000000000077e+01 1.096649999999999991e+01 1.198910000000000053e+01 9.147169999999999135e+00 1.297709999999999919e+00 9.367689999999999628e+00 1.452360000000000007e+01 4.414520000000000444e+00 1.375730000000000075e+01 1.065049999999999919e+01 3.618040000000000145e+00 1.228439999999999976e+01 3.861209999999999920e-01 2.727230000000000043e+00 1.014840000000000053e+01 8.189990000000000325e-01 8.272080000000000766e+00 1.185820000000000007e+01 1.006310000000000038e+01 7.245820000000000149e+00 4.645159999999999734e+00 7.375200000000000422e+00 1.190160000000000018e+01 1.428289999999999971e+01 1.056990000000000096e+00 5.924750000000000405e+00 3.911550000000000082e+00 6.524569999999999537e-01 5.420709999999999695e+00 8.500420000000000087e+00 3.392419999999999991e+00 1.229240000000000066e+01 8.377520000000000522e+00 1.452210000000000001e+01 1.363520000000000065e+00 1.431109999999999971e+01 1.402389999999999937e+01 6.596049999999999969e+00 1.491559999999999953e+01 8.552130000000000010e+00 1.300430000000000064e+01 1.135629999999999917e+01 1.125619999999999976e+01 3.504239999999999799e+00 6.034360000000000390e+00 1.328870000000000040e+01 7.903850000000000264e+00 2.710399999999999920e+00 1.357920000000000016e+00 9.916280000000000427e+00 7.486760000000000304e+00 1.418180000000000085e+01 1.382939999999999969e+01 1.453439999999999976e+01 2.799739999999999895e+00 1.867560000000000109e+00 1.811350000000000016e+00 1.654740000000000100e+00 1.200489999999999924e+01 7.680819999999999759e+00 8.400469999999999882e-01 7.710880000000000400e+00 1.459750000000000014e+01 1.477360000000000007e+01 1.258600000000000030e+01 3.869779999999999998e+00 1.283740000000000059e+01 1.344469999999999921e+01 1.101730000000000054e+01 6.953949999999999854e+00 1.508489999999999931e+01 8.621589999999999421e+00 2.176930000000000032e+00 1.433779999999999966e+01 7.897529999999999717e+00 1.275849999999999973e+01 1.580499999999999972e+01 1.414799999999999969e+01 1.325709999999999944e+01 9.014239999999999142e+00 1.005419999999999980e+01 5.609420000000000073e+00 2.248470000000000191e+00 1.028950000000000031e+01 6.885150000000000325e+00 9.778829999999999245e+00 4.036879999999999913e-01 6.803899999999999615e+00 1.453340000000000076e+00 6.861069999999999780e+00 8.276910000000000878e+00 4.005440000000000111e+00 9.686310000000000642e+00 6.887719999999999843e+00 7.475279999999999703e+00 8.058560000000000167e-01 9.923249999999999460e+00 1.317409999999999926e+01 2.230049999999999866e+00 1.372549999999999937e+00 3.932500000000000107e+00 1.165000000000000036e+01 1.031339999999999968e+01 1.509500000000000064e+01 1.136379999999999946e+01 1.521039999999999992e+01 1.229020000000000046e+01 5.242490000000000094e+00 9.748920000000000030e+00 3.053049999999999820e+00 1.130330000000000013e+01 2.730679999999999996e+00 2.465050000000000185e+00 9.084379999999999455e+00 6.958039999999999559e+00 1.191999999999999993e+01 7.179969999999999963e+00 8.122329999999999828e+00 1.551420000000000066e+01 5.625840000000000174e+00 1.290910000000000046e+01 1.518870000000000076e+01 9.387919999999999376e+00 9.439859999999999474e+00 1.117050000000000054e+01 3.617659999999999876e+00 1.468599999999999994e+01 1.502990000000000048e+00 1.423820000000000086e+01 8.564080000000000581e+00 5.097419999999999618e+00 8.120160000000000267e+00 4.436329999999999885e+00 3.142689999999999984e+00 8.383929999999999438e+00 7.193660000000000387e+00 5.768979999999999997e+00 7.632179999999999964e+00 1.186800000000000033e+01 5.186720000000000219e+00 5.444689999999999586e+00 1.112770000000000009e-01 8.616169999999999662e-01 1.308389999999999986e+01 1.268859999999999921e+01 2.741340000000000110e+00 1.363719999999999999e+01 2.932029999999999914e-01 1.435950000000000060e+01 1.301469999999999949e+01 7.002259999999999707e+00 1.378030000000000044e+01 4.780789999999999651e+00 1.499239999999999995e+01 6.798320000000000363e+00 1.577560000000000073e+01 5.352570000000000050e+00 1.015000000000000036e+01 6.105900000000000105e+00 1.026730000000000054e+01 6.238579999999999792e+00 7.021340000000000359e+00 3.699170000000000069e+00 1.031049999999999933e+01 4.730310000000000237e+00 3.723000000000000198e-01 3.153189999999999937e+00 1.240809999999999924e+01 7.643109999999999626e-01 2.484230000000000049e-01 3.090279999999999916e+00 3.129990000000000272e-01 7.772520000000000095e+00 1.217849999999999966e+01 1.815409999999999968e+00 4.613150000000000084e+00 1.381600000000000072e+01 7.449089999999999989e+00 7.452820000000000000e+00 8.435029999999999362e+00 1.152190000000000020e-01 1.545889999999999986e+01 1.942630000000000079e+00 1.059159999999999968e+01 1.018430000000000035e+01 1.581329999999999991e+01 9.734320000000000306e+00 1.109580000000000055e+01 1.484280000000000044e+01 9.893889999999999629e-01 3.603959999999999830e+00 7.713519999999999932e+00 1.499510000000000076e+01 1.181489999999999974e+01 9.998870000000000147e+00 4.836890000000000356e+00 1.523039999999999949e+01 7.232880000000000420e-01 3.088719999999999910e+00 1.342440000000000033e+01 9.809350000000000236e+00 1.109009999999999962e+01 7.013270000000000337e+00 7.542659999999999698e+00 2.044519999999999893e+00 3.022460000000000147e+00 9.629459999999999908e+00 1.396840000000000082e+01 1.084179999999999922e+01 3.654479999999999951e+00 1.050789999999999935e+01 4.559470000000000134e+00 5.044769999999999532e-01 1.476950000000000074e+01 1.120950000000000024e+01 1.214309999999999973e-01 1.044950000000000045e+01 1.516070000000000029e+01 9.988289999999999225e+00 9.768509999999999138e+00 8.841519999999999158e+00 1.164409999999999989e+01 1.103790000000000049e+01 1.306160000000000032e+01 5.553650000000000198e+00 1.191740000000000066e+01 3.832009999999999916e+00 8.939399999999999125e+00 3.884869999999999823e+00 1.138099999999999890e+00 1.160220000000000001e-01 8.893269999999999342e+00 1.088330000000000020e+00 9.044000000000000483e+00 5.093270000000000408e+00 1.062560000000000038e+01 3.732829999999999870e+00 1.167730000000000068e+01 1.569059999999999988e+01 8.797689999999999344e+00 1.218399999999999928e+01 2.069129999999999914e+00 7.341099999999999959e+00 1.259270000000000067e+01 1.210979999999999990e+01