-7.786964206767131691e+04
-7.787163002332826727e+04
-7.786717402226271224e+04
-7.786082440603995929e+04
-7.786516465555272589e+04
-7.786852684805696481e+04
-7.786565946459551924e+04
-7.786516083858281490e+04
-7.785574647860457480e+04
-7.786362827311700676e+04
-7.786336383803102945e+04
-7.786506601751231938e+04
-7.785922522714240768e+04
-7.786882438918901607e+04
-7.786657374719380459e+04
-7.786704344122554176e+04
-7.786800313826602360e+04
-7.786297679483980755e+04
-7.786112114557265886e+04
-7.786714522536357981e+04
-7.786700867431623919e+04
-7.786750023053989571e+04
-7.786211739062772540e+04
-7.786676083679553994e+04
-7.787141821449411509e+04
-7.786885401609125256e+04
-7.786487655623820319e+04
-7.786537566284179047e+04
-7.786776607427977433e+04
-7.786733436714383424e+04
-7.786483312411390943e+04
-7.786597580483699858e+04
-7.786393455214555433e+04
-7.785892053059804311e+04
-7.786631587304797722e+04
-7.786258292780170450e+04
-7.787135715103104303e+04
-7.786731131825452030e+04
-7.786225205595984880e+04
-7.786543548274446221e+04
-7.786500939596255193e+04
-7.787352644470657106e+04
-7.786623956693273794e+04
-7.785968140730178857e+04
-7.787125658043316798e+04
-7.786549899153987644e+04
-7.787206861997825035e+04
-7.786232360035811143e+04
-7.786986348243756220e+04
-7.786278072973345115e+04
-7.786353595087227586e+04
-7.786702097830390267e+04
-7.786932429280017095e+04
-7.786990527738077799e+04
-7.786267693898529978e+04
-7.786584554855138413e+04
-7.786486222893818922e+04
-7.786226664103406074e+04
-7.786441975768998964e+04
-7.786832231646437140e+04
-7.786379980520711979e+04
-7.785756791508298193e+04
-7.786585613882931648e+04
-7.786569566537385981e+04
-7.786798440986064088e+04
-7.786468470054891077e+04
-7.786569991012792161e+04
-7.786511856994598929e+04
-7.786444456945423735e+04
-7.786117048497765791e+04
-7.786494165467770654e+04
-7.786961814766610041e+04
-7.786541771530397818e+04
-7.786163606735100620e+04
-7.786704259622296377e+04
-7.786845310949743725e+04
-7.786838365414779400e+04
-7.786497134367894614e+04
-7.786327344534453005e+04
-7.786917277213068155e+04
-7.786454115418181755e+04
-7.786559750210480706e+04
-7.786190437211515382e+04
-7.786827369823252957e+04
-7.786705872325236851e+04
-7.786679691759884008e+04
-7.786381393394799670e+04
-7.786704010165168438e+04
-7.786931645305565326e+04
-7.786620726565274526e+04
-7.787071082546195248e+04
-7.786563011683463992e+04
-7.786601375737009221e+04
-7.786386110666139575e+04
-7.786978061697981320e+04
-7.786931711959755921e+04
-7.786670536201719369e+04
-7.786113519357518817e+04
-7.786746646373119438e+04
-7.786520561258138332e+04
-7.786571561646198097e+04
-7.786565427322519827e+04
-7.786429843910293130e+04
-7.786296850237195031e+04
-7.786848697335332690e+04
-7.786636342363660515e+04
-7.786653537313126435e+04
-7.786117525584634859e+04
-7.786564519669284346e+04
-7.786859137209937035e+04
-7.786367719763661444e+04
-7.786271953473611211e+04
-7.786172055397843360e+04
-7.786228447272929770e+04
-7.786850533988793904e+04
-7.786620623934034666e+04
-7.786312075268400076e+04
-7.786425484788393078e+04
-7.786645806239782542e+04
-7.786887210646044696e+04
-7.786663712286182272e+04
-7.786187124945796677e+04
-7.786486972212055116e+04
-7.786411210858660343e+04
-7.786597057162379497e+04
-7.786675617808369861e+04
-7.786847061460585974e+04
-7.787006206145892793e+04
-7.786659724308017758e+04
-7.786761764676746679e+04
-7.786552638445136836e+04
-7.786591653591301292e+04
-7.786710573694491177e+04
-7.787090748395449191e+04
-7.786746569544193335e+04
-7.786862072214865475e+04
-7.786399277417027042e+04
-7.786689207208238076e+04
-7.786601415736530907e+04
-7.785918542371469084e+04
-7.786687242466646421e+04
-7.786659386579405691e+04
-7.787077866255532717e+04
-7.786360510072167381e+04
-7.786214875298368861e+04
-7.786290008054379723e+04
-7.785829922689462546e+04
-7.786961939210801211e+04
-7.786878515944466926e+04
-7.786840693388506770e+04
-7.787160503316145332e+04
-7.786692330414061144e+04
-7.786531488936315873e+04
-7.786673529880621936e+04
-7.787159920280809456e+04
-7.786653719160256151e+04
-7.786445335551731114e+04
-7.786563833542486827e+04
-7.785651630003427272e+04
-7.787132510963942332e+04
-7.785866545107009006e+04
-7.786151190442443476e+04
-7.786484372984038782e+04
-7.786325092813737865e+04
-7.787084092694603896e+04
-7.786404526114754844e+04
-7.787094284932594746e+04
-7.786157062997489993e+04
-7.785910253909461608e+04
-7.785854230897898378e+04
-7.786174104750799597e+04
-7.786169322616234422e+04
-7.786562362209563435e+04
-7.786912446979456581e+04
-7.786241730764876411e+04
-7.786339451966600609e+04
-7.786147336779895704e+04
-7.786649263421111391e+04
-7.787249475763198279e+04
-7.786625200047464750e+04
