7.847490864321617909e-01 1.931673050072233000e+00 2.941822541756073495e+00 -2.208912041546795990e+00 -3.247781786357513689e-01 1.227842757462167533e+00 -2.850386906693719080e+00 -1.225472200151508817e+00 -1.749684182625418138e+00 3.180715069072190815e+00 1.571368907679112414e+00 -1.313402392874001734e+00 4.768661422864320931e-01 2.216304992187867473e+00 1.507047100355675351e+00 -1.458204878004636607e+00 1.042017803781618568e+00 2.365608450884705061e+00 -3.613177227651465540e+00 -3.268602581478677882e-01 -3.462690032961323050e-01 -2.955186622872495672e+00 6.964913351398445418e-02 4.620005367997009893e-01 -5.923529067488134681e-01 3.082310715425444769e-01 -1.424056511434957928e+00 -9.498684304226930400e-03 1.794320079856893679e+00 1.616870752526888833e+00 -1.649965995154652365e+00 1.010796895513367266e+00 1.130474044254394350e+00 3.823648778273416760e+00 1.152473947382790964e+00 -1.928400549698039645e+00 -1.052703823623873935e+00 -2.749391395066841159e+00 2.501641930848601980e+00 -1.172157286371379170e+00 2.801057717363679256e+00 -1.425877366844294780e+00 4.863480115745941745e+00 -1.996565642344657165e+00 1.820789074869657798e+00 -2.947963365054095952e+00 1.863304326038408787e+00 8.680142691932025700e-01 -1.000405524117751188e+00 -4.261583273273523154e-01 -7.064229932522220201e-01 -5.947990544986622892e-03 1.051472779328490592e+00 -1.910809574635063290e+00 1.897018176137912793e+00 4.129471240175370816e+00 -1.340407205829869053e+00 -2.237523279890623495e+00 1.260635124112495120e+00 4.199167167770758158e-01 -1.182711665720894922e+00 -5.440686138298929109e-01 -2.348295154986100641e+00 -1.731296679737233779e+00 -1.244577040880987973e+00 -1.106515988796499483e+00 8.568135144555092397e-01 3.938945795306811326e-01 -1.093666128354840339e+00 2.915127289646413655e-01 2.137174143651923153e+00 1.523991700030474128e+00 -2.271190335908723323e+00 -2.644381876852761160e+00 -1.591579837080007720e-01 -8.031347895479846954e+00 -2.920546147117069058e+00 1.391651352952727017e+00 -1.064142148313307779e+00 -3.711274591555377977e-01 -1.065015295019056119e+00 -2.825196264278416969e+00 -1.672417384035490784e+00 1.919021164590357875e+00 1.211624751600808736e+00 5.010591965926940450e-01 2.895784364744518946e+00 1.432394085455569455e+00 -4.417932583655966639e+00 -3.359645351945513281e-01 1.147315799794240698e+00 4.621887415666643406e-01 1.853667830593345722e-01 -2.173699238180357263e+00 2.975329160923647187e+00 -8.197325473776558846e-01 1.865196658121537898e-01 -1.115731851729606650e+00 -1.275098094810886540e+00 -3.978180832791247679e-01 1.175160335111996357e+00 -9.042956231217992302e-01 3.251401385687172407e+00 -1.355125744203617734e-02 5.095374613899206651e+00 -7.249020274205146552e-02 -1.738681402847508606e+00 3.325307752167522057e+00 -4.720399755655090068e+00 5.939917280392840171e-01 -2.736151755353711579e+00 3.076559671398892082e+00 3.196112892957301832e-01 -3.593595190135805972e-01 -3.703819934433334904e+00 5.381597040561882928e-01 2.692330383671061256e+00 7.022428933870715762e-01 -4.183901498599061242e+00 -3.379205277972157972e+00 -2.534668782126622055e+00 1.293181179059611274e+00 1.894053693947902683e+00 -2.094542164390000405e+00 1.615258670711506195e+00 3.695662851869565557e-01 3.937778000154423808e+00 2.278014044262832272e+00 2.459137478314020520e+00 -2.316224754163140609e-01 -7.946869151926365671e-01 8.020438703864745111e-01 1.666885398016388020e+00 -2.933278765244882180e+00 2.731540224342434570e-03 2.370791795286318671e+00 -2.428180879472597586e-01 -1.317605118448841761e+00 2.895113820984627218e+00 -1.644815046655548674e+00 -1.776920394884929089e-01 4.083333818573586238e-01 -2.649113735501932965e+00 -1.077943317003279278e+00 2.132765215586502894e+00 2.051623764212234136e+00 -4.754983152915617794e-01 -6.278382470728764986e-01 7.069757804775925747e-01 3.189536010527079246e-01 -5.050658498242467154e+00 1.671505156558460881e+00 -5.821337992792432470e-01 1.221974985342443754e+00 8.052397518801281961e-01 2.978465907039703264e+00 4.799046722536082221e-01 -2.773156103551025486e-01 4.149248167326764936e+00 8.914637604037568552e-01 1.150640750677260238e+00 8.995683924587004610e-01 6.819080368035584927e-02 -3.108188870882905963e+00 -2.711811119713792628e+00 3.785204612186766848e+00 7.008323860761960233e-01 -1.203444529106674876e+00 6.861554995771029786e-02 1.146972300383499066e+00 -1.595866894845508810e+00 -4.142738133584262350e+00 1.582399969594133760e+00 -3.779588808197676397e-01 1.592757916645890059e+00 7.941829789313685495e-02 3.045739341036281522e-01 3.364668259496600644e+00 -1.152856527564814826e+00 -5.471151656395953466e+00 -2.240707334308757570e+00 2.126884073729235602e+00 -6.034276774211898287e-02 1.190368411568119900e+00 -1.229615276128076307e+00 1.188376834894761647e+00 -2.708732480533984965e+00 1.229289774440951222e+00 -3.398057636350328425e-01 -1.077002807389137118e+00 -3.933700744424225570e-01 -3.901453965909821964e+00 5.009317212874201175e+00 -2.923565650919278447e+00 -3.186764361090105857e-01 -2.073120759520712397e+00 1.641988889827049880e-01 4.386456621933032540e-02 2.256291306078133108e+00 2.098077945749672324e+00 -5.541442537312043504e-01 -1.428997143678083503e+00 6.116361820524356396e-01 5.221011066040065485e-01 3.016490983276421733e+00 -1.288975882381397486e+00 2.482507265319986001e+00 1.126363878401011931e+00 -1.069179968263963554e+00 1.159909578339867853e+00 1.275303268860117079e-01 6.149194810607991890e-01 7.815046625068106323e+00 1.903801775279389430e+00 4.512517820351246156e-01 2.531863194125113514e-01 -1.690596627550396525e+00 1.190791615183450114e+00 -9.191612286085302230e-01 2.333339560881285912e+00 -3.050444460210364750e-01 -7.533271178800781120e-01 9.849470221930184399e-01 1.733264602259552811e+00 2.893524879099609315e+00 -1.299507636021223655e+00 1.134262307965375527e+00 6.820360777515744877e-01 1.552281036231900391e+00 -1.867856721672088272e+00 1.826863563700635851e+00 1.317182943274861184e+00 -1.538707667300849069e+00 -3.040905666693506926e-01 1.168760858814567927e+00 7.864321307006619577e+00 5.375503525565938912e-01 2.035672638881078189e+00 2.052527249937793563e+00 2.991612987031375237e+00 -2.060117147097298984e-01 8.384681776626553562e-01 4.874297776080937367e-02 1.225902088635610898e+00 -3.623445700305812922e-01 9.173347167717710304e-01 1.203698554120008035e+00 -9.320609684556414587e-01 -2.485727315185353448e-01 7.694669621988724506e-01 4.579564483030252653e+00 -1.736025967283031379e+00 1.829211495301605039e-01 1.323548995228430281e+00 6.895861228087860617e+00 5.381133213513246361e+00 -9.157709716998161387e-01 -5.620195433652035444e-01 -1.961811009599432998e+00 1.563590805752643309e+00 -5.784391237310692047e-01 -7.939196979458897907e-01 1.262163902178566222e+00 -1.313404963977375717e+00 -3.635618332118808915e+00 -3.145562943745374263e+00 3.746141838628375798e+00 2.840884108624094351e-01 4.220414766051976130e-02 -6.819460891334908625e-01 -1.192405753881532027e+00 4.355673829679679976e+00 -1.638245363314773106e+00 -8.690848766380597779e-01 8.766516338672011299e-01 1.953953717689050240e+00 -1.709414018922683187e+00 6.876045734385858310e-01 -7.235876793758198033e-01 2.776375124975043462e-01 -9.995807141554312603e-01 1.747340364789847333e+00 -2.988398593593429853e-01 1.066671085591793577e+00 -2.760768527495978120e+00 -1.707203898462550606e+00 -1.095450988316943874e+00 1.332720635183507918e+00 3.461320149083753961e+00 4.817409542831877722e+00 -3.305254688513779460e+00 3.590237329129602334e-02 -1.947104298301203684e+00 4.680952345031975881e+00 8.529352621264447709e-01 -9.790761647492460945e-03 -2.065806998863554345e+00 8.674722806020022103e-01 2.623586278544660200e+00 -1.240557377866363664e+00 1.887717981014144453e+00 -2.165238765418477485e+00 8.642244628201973811e-01 9.900275224596792878e-01 -1.684684632452643216e-01 1.674927809369685328e+00 2.633508680684891967e+00 1.967403159437483451e+00 -1.874940625687626872e+00 -3.419839509912625530e+00 2.716834027264880547e+00 3.849887916644562091e-01 9.818426719794726143e-01 -1.743967077163400381e+00 2.312141842005519976e+00 -1.721786168357487101e+00 -4.863676033823026934e+00 -1.574794131593710400e+00 -5.058316786751716476e-01 -5.228950633258410141e-01 3.108728288370731896e+00 2.352928797486392387e+00 -1.319550415261471210e+00 3.374437938096428002e+00 -1.092158433336434670e-01 -1.513591586883387352e+00 -7.724011053690716944e-01 1.214288414696082619e+00 -1.370859354189349233e+00 -4.931957340342141838e-01 2.717283456134623520e+00 -2.603237023782253856e-01 7.990711606656680788e-01 -1.033778445909886878e+00 2.626037568501256581e-01 -1.834014316403893841e-01 -1.433660096756836477e+00 3.548968548876476170e+00 -2.298260969110960783e+00 -1.473781650684565347e+00 2.227742802656626220e-01 5.145554324225304343e-01 1.014242174034281296e+00 1.516986471778174250e+00 9.874579617478872196e-02 8.584662197041984522e-01 -4.177167264642362099e+00 -2.749220673802819981e+00 -3.918721496168372287e+00 -6.732125651933118515e-02 -4.397970022840981819e-01 9.798444104373424945e-01 3.160667661845870113e-01 6.889621160199609351e-01 -9.701683200003222707e-01 5.593569087112794103e-01 7.223329809293973502e-01 -9.441693226842918785e-01 -1.746228105470334357e+00 5.964759281190653573e-01 8.469739018439143008e-01 4.547006601007617665e-01 -1.681447099084333985e+00 -2.104685681420380483e+00 1.360168706361021052e+00 1.965003805769037992e+00 -1.004417473822254436e+00 -2.567924461604911279e+00 1.085540413252231301e-01 -1.869835442828577277e+00 -2.288736573772995886e+00 -1.492907574461709963e+00 -1.888948511088852922e-01 7.354846889071425808e-02 -1.141649087958349629e+00 -2.553991652422200609e+00 1.894692356025958480e-01 1.675923340596026767e+00 -2.102086295909451952e+00 -7.812616418159173959e-01 1.804216770963387173e+00 7.602912084783968183e-01 -9.331819695266253545e-01 2.747793711430351671e+00 -3.165249882278685867e+00 -2.044583568954050801e+00 -3.387294997627534054e-01 1.083817259771099772e+00 -8.691061653739950543e+00 -7.527553044897413725e-01 3.685265309825851987e-01 -1.649323219311198185e+00 1.257098314311473564e+00 6.753794911167642079e-01 6.217226205879170520e-01 -1.341633107918504875e+00 -1.474769468600785616e-01 -1.069134716844584165e+00 -1.681275863599637654e+00 1.748816178126417986e+00 -8.608110659811187837e-01 6.619094805413405780e-01 6.085282322941666378e-01 9.418753842541728316e-01 -1.721945062545989225e-01 -6.517093992367365418e-01 5.701164621100258956e-02 2.224155599229477698e+00 5.339122412826438069e-01 -4.630742295686067211e-01 -1.239334561101776533e+00 2.268018108566109081e+00 1.703281937376131649e+00 -1.494965999822787328e+00 1.312462911701209212e+00 1.916813615233599055e+00 -7.448368203190618431e-01 -1.888582385968421651e+00 -3.413042026812930230e-01 -2.649376502266736377e+00 -1.425024274744862485e+00 -2.551797987023660674e+00 9.260204181891973363e-01 2.940456257423227804e+00 -1.554825400130628754e+00 -1.040105417092174189e+00 2.018744494267871836e+00 -9.169603641205434919e-01 -1.895485284306443585e+00 2.558137813722816567e+00 -5.253124147179030756e-02 3.308288590494882442e+00 -1.792712111806908926e+00 -1.543136135751910221e+00 6.312027929478525312e-01 2.219191312835313290e-01 -1.189898928092061103e+00 4.415683382424552050e+00 -1.106492848866135192e+00 -3.996345678127259493e+00 -2.943424853378635575e-01 -6.379678801450379411e-02 -1.428191874101404135e+00 3.611541491685044125e-01 -3.039190226522496374e+00 2.761525460329230075e+00 2.626728681088138728e+00 1.524991345022213896e+00 1.535455221532971537e+00 2.022952876270133871e+00 1.090391571097947931e+00 -1.241882010324553809e+00 -1.234593960701134252e+00 6.484208037554230586e+00 8.605961217390678542e-01 -1.811934709070909033e+00 4.544389217773072698e-01 -2.388167311886569166e+00 2.674903959224009253e-01 1.603966898914379824e+00 -5.938287200853840098e-01 -1.877450022580471778e+00 -2.634602942280788174e+00 6.701807200949075893e-01 6.622457808626357467e-01 -1.040082791382484384e+00 -1.652966472791896013e+00 1.238884618011358851e+00 3.224815148360562489e+00 1.224459185422224872e+00 -1.759280054637175628e+00 -2.833508641485964485e+00 -1.256110496395253184e+00 -5.927863947776388365e-01 -4.276814489660011098e+00 -4.470336298400416020e+00 3.295237669769390365e+00 7.692926413901277627e-01 1.614587612730939981e+00 -1.794360189069525102e+00 -6.457315838926136475e-01 2.674945611098665132e+00 -2.362316410124870369e+00 4.845470565053708323e-01 1.458297437726093770e+00 2.811002230992926343e+00 -2.080562046905211737e+00 -8.528745840868227068e-01 -1.929562174202329450e+00 -1.528619686103343422e+00 6.950103795965263676e-02 -3.753553815434413354e-01 2.458185655845033235e-01 7.411714553493493618e-01 -4.595929556004594296e-01 3.174973281017784421e-01 4.821173123950469375e+00 -2.051423218149076355e+00 -1.367527204216883563e+00 -3.217813005432311191e-01 5.704044256878932490e-02 4.072370633787633643e-01 -2.513778052993689283e+00 1.975126753972427651e-01 8.895498310522879093e-01 1.625888640500212201e+00 2.024152553104356655e-01 3.722510313298955431e+00 -9.462472884310101362e-01 -4.895344828298996975e-01 9.360826883529648201e-01 1.001622684454915868e+00 -2.437375145137364307e-01 -1.849143202876103897e+00 -7.981764166915801262e-01 -1.491036325426246423e+00 2.080136272186507984e+00 -2.417417726529127453e+00 -2.409252416434561617e-01 -1.147550798642607672e+00 1.987471135490794349e+00 5.512095963403302878e-01 -1.774142574799857819e+00 -2.275086071740730187e+00 -1.462022966514753941e+00 1.466762024253372099e+00 -7.022094690432119368e-02 -5.151812389837173711e-01 -1.461398188394916531e+00 4.867031837946532158e-01 7.730603362741180762e-01 -9.832156411810903662e-02 -1.368886803680957387e+00 -2.984032860064690595e+00 -2.482867734012995431e+00 -1.667740032777844217e+00 -2.793856571034294856e+00 5.628860052021796845e-01 -1.353418017342729041e+00 1.853870433539202223e+00 -8.658715116414641422e-01 4.216904181505367610e+00 -2.282657971176619505e+00 -1.031389376654937129e+00 1.316204381330786655e+00 -1.352649771654632849e+00 5.178454162996657395e-01 2.063803080894002218e+00 -2.050336155642627389e+00 -1.826530862924064191e+00 -7.680867939078078743e-01 -1.128018126311725489e+00 -1.947867916003227090e-02 1.412400157179424687e+00 -6.840096567013158602e-01 2.853432635750342339e+00 -4.138355430773255628e-01 1.887253125524158470e+00 1.149386052230837896e+00 -1.933017222916064037e+00 -2.063413301622531865e-02 -1.903804346382763357e-01 1.776543471130327623e+00 -7.278721660379472436e-01 -8.869000519152328010e-01 -2.739484933767526997e-01 -7.014592210787324866e-01 1.451717469971823160e+00 -1.073523590303688824e+00 3.017467488337797210e-01 3.311276212615256842e+00 -1.351167787669965037e+00 -3.895610876382487042e+00 -3.454800859369104860e+00 1.603086553119184909e+00 2.089420526469357942e+00 -1.010076986568698709e+00 1.620407048107235792e-01 -1.672211181544910774e+00 1.693914379343969046e+00 -1.965622927461452729e+00 -2.354086822445959348e-01 1.576118764051900545e+00 -7.451103857180360057e-01 2.815404474189575068e-01 -4.473498755550209816e-01 -1.159861241596439996e+00 7.165150882151258283e-02 -2.415356730064676327e+00 -1.579002513595972879e+00 4.542918546643249789e-01 2.690985182385880581e+00 -5.125247749778902850e-01 -5.196657574883276620e-01 -5.933252980447908387e-01 3.249350159415541617e-01 -1.027971866050460203e+00 1.206526253610531035e-01 -1.130299723445649995e+00 -2.216914343687461209e+00 -1.848288053893972549e+00 -2.371642316282376761e+00 2.015142892661829777e+00 -1.544154292687941687e+00 -7.535029813508470342e-02 -4.529363689656490388e-01 6.339651864126807368e-01 -1.075112017968032491e-01 1.411125918347361008e+00 6.998893053586801027e-01 -2.407066978566817922e-02 1.156010757183812743e+00 7.453957781925295567e-01 -1.612174375104276081e-01 5.945532570161254915e-01 -3.178144994139723511e+00 -1.830075386035207308e-01 -1.016534569802375776e+00 9.030692068124887006e-01 7.601210014350502364e-01 -2.847488244750078668e+00 3.516909460908361207e-01 -1.486704530462040763e-01 -1.913291717832145800e+00 1.414007096788059803e+00 3.964245452505162914e-01 2.858452457977381123e+00 -2.048100838369431465e+00 -5.405138063052545849e-01 -4.501231190760867307e+00 -7.035397579288245051e-01 -5.964142216380937667e-01 -1.401780986024888376e-01 -1.034564175100925354e+00 -5.668167080400701163e-01 9.703395554850183236e-02 -4.544255520397634251e-01 -2.448283308311117512e+00 2.623152790515834720e-01 4.047070976589281499e-02 -6.970857742398708368e-01 -5.098780811648838673e-01 1.338131265123366775e+00 -3.085082364862418713e-01 -4.905330993802899942e-01 2.646619765229330845e+00 3.348337639307469304e-01 -1.615474643394906984e+00 3.568184461271704855e+00 -3.954217635126604513e+00 -2.368810503026455905e+00 9.573760522742366108e-01 -1.608798002153780216e+00 6.417299186016059975e-01 -2.409175797554022225e+00 1.706335379742875524e+00 -4.072355207167390745e-01 1.338984357222799126e-01 -1.401189632248910799e+00 -2.339153854050833869e-01 1.844261706010576152e+00 -2.560165900064083067e-01 1.061125215614471817e-01 -1.007556791041684052e+00 5.318546900967136004e+00 3.640773908603985198e+00 -2.835860172631656795e-01 1.361001743854137747e+00 -6.815043735738692821e-01 2.071129182847354588e+00 1.449681156099760893e+00 -1.019481054268769116e+00 7.971963120854812582e-03 -1.581806044714782367e+00 -2.881507541930392047e-01 -1.464639321307949216e-01 2.248719920862919164e+00 1.443269338506137700e+00 -3.723523328028238710e-02 1.771635749010386895e+00 -5.832856535907129381e-01 -2.972447982482948614e+00 -1.308498784519459335e+00 4.288398338800402776e+00 -2.542091557566828808e+00 2.068738056709705120e+00 -2.073591271438120831e+00 -7.607869172088687071e-01 -2.065329802077374044e+00 -1.976967663988080104e-01 -4.759251184516152255e-01 3.040627987529134768e-01 9.581139589425218261e-01 1.028455747705412371e+00 8.119091940318077238e-01 -1.416881590359986065e+00 6.220410774517978858e+00 -2.070414416109433553e+00 -4.028217589769761631e+00 -4.011795438300521516e-02 1.266888047517616522e+00 -1.879151578793263333e+00 -1.533848281924336421e+00 3.230025746457938773e-02 -7.915938778339355331e-01 8.302319051149721352e-01 1.424586672950639010e-01 9.189714811795425264e-01 -5.995381122372804850e-01 1.935377495813227489e-01 -3.637082832600534339e-03 3.194168110365346536e+00 1.405709631980079921e-01 1.241316367582314228e+00 -4.637713585373832714e+00 1.306803398954764717e+00 1.219169397340935435e+00 1.195237052916778397e+00 -3.235171038529619736e+00 5.179002322235954914e+00 5.242479779211431032e-03 2.823056077830052302e-01 -9.759497030466857126e-01 8.231346313618896904e-01 -1.312003198417970862e-01 1.931438051223866470e+00 -2.683141774433716598e-01 -4.754103835561773184e-01 -2.178695920477031756e+00 8.112777310431983357e-01 -1.385029219103125930e+00 1.820263027119374932e+00 -1.694594179076006180e+00 3.104915856288037457e+00 -1.483895857136483976e+00 -1.482681267902693056e+00 -1.069519353909307302e+00 8.258913683992954446e-01 1.037868042936279211e+00 2.489661103347292348e-01 1.714070287132664294e+00 -1.325126110037929461e+00 2.293397984189724514e+00 -2.281120965579751747e+00 -6.485865370788991904e-03 5.048454034209757246e-01 -2.090976044010516954e+00 1.421310058811047439e+00 2.424715032124693248e-01 8.954289160268562586e-01 -2.213661897919584565e+00 5.218520181091512278e+00 -1.762505760929965248e+00 1.621301792081323967e+00 1.172937359134995118e-02 -1.121533289382285581e+00 7.659851740100505069e-01 1.475188044230042683e+00 7.564546080239882564e-02 -1.954545071465027872e+00 1.404712558091713692e+00 3.541035152306228895e+00 6.803945825135952141e+00 6.353867494680637051e+00 -2.739505502594517417e+00 -4.806552801725601398e+00 -6.728017028741759553e-01 4.088417404164296443e+00 3.846422069296658031e-02 -1.080126697988323725e+00 -3.928988426160695546e+00 8.197963107413264172e-01 -1.158849255308505910e+00 -6.767241781812700641e-01 8.882287981388210796e-02 -8.961143721863156220e-01 1.182676184494336313e+00 9.253992396140833243e-01 -2.123542153563949153e+00 -3.887757698237502613e+00 -5.746709146264039614e-01 3.051762922020458291e+00 -7.452086018669157319e-02 -1.387879544303338486e+00 -3.630358368836655636e+00 -3.577325247986296586e-01 1.621636549740594679e+00 1.387722706997535527e+00 -2.148245829000250406e+00 -1.110048170611448518e-02 8.396477998905621520e-01 -8.189612163655111132e-01 -3.562459128278890885e-01 -1.533267726782528539e+00 -7.344125388002611388e-01