3.958789999999999809e-01 1.041314900000000065e+01 1.043094900000000003e+01 1.252204900000000087e+01 1.177524900000000052e+01 1.291164900000000060e+01 6.786779000000000117e+00 3.083349000000000117e+00 1.788008999999999959e+00 3.986658999999999953e+00 1.721818999999999988e+00 7.146488999999999869e+00 9.581549000000000760e+00 1.771479000000000026e+00 1.138444900000000004e+01 8.693649000000000626e+00 1.105204900000000023e+01 3.667438999999999893e+00 7.560759000000000007e+00 8.378728999999999871e+00 6.470519000000000354e+00 2.147829000000000210e+00 1.170784899999999951e+01 1.119528999999999996e+00 4.287790000000000212e-01 4.839239000000000068e+00 7.793790000000000440e-01 2.334839000000000109e+00 6.029199000000000197e+00 1.805188999999999933e+00 2.469129000000000129e+00 1.261224900000000027e+01 4.925169000000000352e+00 4.586008999999999780e+00 7.392288999999999888e+00 7.839259000000000199e+00 8.560318999999999789e+00 2.298969000000000040e+00 3.559398999999999980e+00 3.571318999999999910e+00 1.239989999999999981e-01 1.863858999999999932e+00 3.141488999999999976e+00 9.873248999999999498e+00 1.322984899999999975e+01 4.589388999999999719e+00 5.314419000000000004e+00 2.070698999999999845e+00 1.054664900000000038e+01 2.408859000000000083e+00 8.173109000000000179e+00 5.022839000000000276e+00 3.668938999999999950e+00 7.491989000000000232e+00 1.996679000000000093e+00 4.089539000000000257e+00 9.028249000000000635e+00 1.134028999999999954e+00 2.902369000000000199e+00 7.069509000000000043e+00 1.030154899999999962e+01 1.145754900000000021e+01 1.184174900000000008e+01 3.164429000000000158e+00 9.378548999999999580e+00 8.314638999999999669e+00 9.482549000000000561e+00 1.023674899999999965e+01 8.158799000000000134e+00 5.339589000000000141e+00 2.079578999999999844e+00 1.176334899999999983e+01 9.284648999999999930e+00 3.542378999999999944e+00 1.615579000000000098e+00 5.451598999999999862e+00 4.079029000000000238e+00 1.050934900000000027e+01 2.047689000000000092e+00 4.266568999999999612e+00 1.246894900000000028e+01 4.976929000000000158e+00 9.194349000000000771e+00 1.488758999999999943e+00 7.422578999999999816e+00 1.303354900000000072e+01 1.013014899999999940e+01 1.089264900000000047e+01 1.039844899999999939e+01 1.847158999999999995e+00 9.716848999999999847e+00 4.849390000000000089e-01 4.685889000000000415e+00 6.071138999999999619e+00 7.219119000000000064e+00 2.568608999999999920e+00 1.302314900000000009e+01 1.738418999999999937e+00 1.333248999999999906e+00 7.076458999999999833e+00 8.635089000000000681e+00 1.153334899999999941e+01 9.511148999999999631e+00 1.214244899999999916e+01 1.669939000000000062e+00 1.056504900000000013e+01 8.154249000000000080e+00 8.602539000000000158e+00 4.252589000000000397e+00 1.025964899999999957e+01 6.372269000000000183e+00 3.851608999999999838e+00 4.141690000000000094e-01 1.117014900000000033e+01 1.316394900000000057e+01 1.874379000000000017e+00 1.039944900000000061e+01 5.846708999999999712e+00 4.535638999999999754e+00 2.490489999999999926e-01 8.327318999999999249e+00 9.074049000000000476e+00 2.273149000000000086e+00 9.800748999999999711e+00 7.589799000000000184e+00 8.848390000000000422e-01 7.852689999999999948e-01 5.980609000000000286e+00 8.268029000000000295e+00 6.807998999999999690e+00 1.324064899999999945e+01 1.407318999999999987e+00 1.624028999999999945e+00 7.015169000000000210e+00 6.200898999999999717e+00 3.544849000000000139e+00 1.676079000000000097e+00 4.674539000000000222e+00 5.857128999999999586e+00 6.149999000000000215e+00 9.534249000000000862e+00 2.384228999999999932e+00 2.045649000000000051e+00 9.994649000000000783e+00 9.857549000000000561e+00 4.419488999999999557e+00 9.388348999999999833e+00 2.661748999999999921e+00 8.577569000000000443e+00 1.039504900000000021e+01 1.833379000000000092e+00 8.138588999999999629e+00 4.132858999999999838e+00 2.150298999999999960e+00 6.445028999999999897e+00 1.144314900000000002e+01 1.163884900000000044e+01 6.143239000000000338e+00 4.453590000000000049e-01 1.146798999999999902e+00 4.982579000000000313e+00 4.707518999999999565e+00 1.179104899999999922e+01 1.271054900000000032e+01 8.224149000000000598e+00 1.285204899999999917e+01 8.291418999999999428e+00 1.002864899999999970e+01 1.533088999999999924e+00 8.097359000000000862e+00 5.773989999999999956e-01 6.203618999999999772e+00 7.611619000000000135e+00 4.637768999999999586e+00 6.866899000000000086e+00 4.829089999999999772e-01 8.175288999999999362e+00 1.307754899999999942e+01 9.801648999999999390e+00 8.248438999999999410e+00 8.181359000000000492e+00 5.319289000000000378e+00 4.767948999999999771e+00 6.352288999999999852e+00 9.666848999999999137e+00 7.917608999999999675e+00 6.616779000000000188e+00 9.041289999999999605e-01 4.006649000000000349e+00 5.948498999999999981e+00 4.561348999999999876e+00 5.524558999999999997e+00 4.481488999999999834e+00 2.247768999999999906e+00 2.528309000000000140e+00 7.363189000000000206e+00 2.803999000000000130e+00 1.076484899999999989e+01 1.166624900000000054e+01 1.297144899999999978e+01 5.806319000000000230e+00 4.184618999999999645e+00 5.606529000000000096e+00 6.430949000000000026e+00 4.217849000000000181e+00 1.261504900000000085e+01 7.355469000000000257e+00 1.291064899999999938e+01 8.386079000000000505e+00 3.576468999999999898e+00 1.226034899999999972e+01 4.607098999999999833e+00 3.536659000000000219e+00 1.702790000000000137e-01 5.582390000000000407e-01 3.332648999999999972e+00 1.122524899999999981e+01 2.893318999999999974e+00 2.189689999999999970e-01 8.563109000000000748e+00 1.042794899999999991e+01 5.939588999999999785e+00 9.874949000000000865e+00 2.957078999999999791e+00 5.284099000000000323e+00 9.977249000000000478e+00 6.085979000000000028e+00 6.008238999999999663e+00 8.322169000000000594e+00 6.043209000000000053e+00 1.041114899999999999e+01 8.837749000000000521e+00 7.792890000000000095e-01 4.570589999999999931e-01 9.091549000000000547e+00 7.702748999999999846e+00 1.189034900000000050e+01 8.320809000000000566e+00 1.500178999999999929e+00 6.488279000000000352e+00 1.132284899999999972e+01 7.738329000000000235e+00 5.032308999999999699e+00 4.024389000000000216e+00 8.755748999999999782e+00 4.330828999999999596e+00 3.951890000000000125e-01 5.858590000000000186e-01 1.224624900000000061e+01 1.790019000000000027e+00 2.287628999999999913e+00 1.500589999999999979e-01 9.996949000000000751e+00 4.011890000000000178e-01 9.457948999999999273e+00 1.236124900000000082e+01 9.602648999999999546e+00 5.957689000000000235e+00 7.751108999999999583e+00 1.165944900000000040e+01 1.198834899999999948e+01 1.295379000000000058e+00 1.149204899999999974e+01 3.272469000000000072e+00 5.933999000000000024e+00 6.846638999999999697e+00 1.254814900000000044e+01 1.160484899999999975e+01 5.973269000000000162e+00 7.577018999999999949e+00 4.939249000000000223e+00 1.123364899999999977e+01 2.961059000000000108e+00 1.200204899999999952e+01 1.047904899999999984e+01 3.904849000000000014e+00 5.893989000000000367e+00 1.165954900000000016e+01 8.499928999999999846e+00 7.348289999999999544e-01 5.595590000000000286e-01 6.267788999999999611e+00 9.701748999999999512e+00 9.586149000000000697e+00 1.037984900000000010e+01 1.212914899999999996e+01 3.010298999999999836e+00 6.520729000000000219e+00 1.300544900000000048e+01 6.729459000000000302e+00 1.171894900000000028e+01 1.167004900000000056e+01 3.868609000000000187e+00 1.104074899999999992e+01 2.258249000000000173e+00 1.198544899999999913e+01 1.047424900000000036e+01 8.820989999999999664e-01 1.379589999999999983e-01 8.987648999999999333e+00 1.263454899999999981e+01 9.373549000000000575e+00 7.840089999999999559e-01 5.406578999999999802e+00 1.227704899999999988e+01 5.070548999999999751e+00 6.142189999999999594e-01 2.895989000000000146e+00 3.588419000000000025e+00 4.808479000000000170e+00 8.527259000000000810e+00 1.146594900000000017e+01 7.025979000000000418e+00 1.072984899999999975e+01 7.388590000000000435e-01 9.694148999999999461e+00 5.372658999999999629e+00 2.862579000000000207e+00 3.486638999999999822e+00 5.195389999999999731e-01 7.392349000000000281e+00 2.635489999999999777e-01 1.239804900000000032e+01 3.502298999999999829e+00 2.330948999999999938e+00 7.266759000000000412e+00 1.295428999999999942e+00 3.308788999999999980e+00 3.663390000000000257e-01 4.489619000000000248e+00 1.588468999999999909e+00 1.277294900000000055e+01 5.955009000000000441e+00 7.173179000000000194e+00 1.512909000000000059e+00 7.330868999999999858e+00 4.266579000000000121e+00 1.227124899999999919e+01 2.285258999999999929e+00 1.259874899999999975e+01 8.125390000000000112e-01 2.209788999999999781e+00 2.175079000000000207e+00 8.970349000000000572e+00 1.304754900000000006e+01 4.702018999999999949e+00 7.291819000000000273e+00 1.210704899999999995e+01 2.733608999999999956e+00 5.290658999999999779e+00 1.182494900000000015e+01 7.254089999999999705e-01 4.329219000000000150e+00 1.282094900000000059e+01 8.637059000000000708e+00 1.301084900000000033e+01 9.606649000000000882e+00 1.224934900000000049e+01 2.006718999999999919e+00 2.162590000000000068e-01 4.600338999999999956e+00 4.553319000000000116e+00 8.830289999999999528e-01 1.097254900000000077e+01 4.657778999999999670e+00 1.021554899999999932e+01 4.796819000000000166e+00 9.895948999999999884e+00 2.619019000000000208e+00 1.274724900000000005e+01 5.450798999999999950e+00 8.136518999999999835e+00 1.103154900000000005e+01 5.329219000000000150e+00 6.489719000000000015e+00 7.641790000000000527e-01 7.631688999999999723e+00 3.501558999999999866e+00 9.883349000000000828e+00 1.272029000000000076e+00 8.301458999999999477e+00 7.348608999999999725e+00 1.052194899999999933e+01 1.271914899999999982e+01 6.974428999999999768e+00 6.466459000000000401e+00 1.024344900000000003e+01 5.714788999999999675e+00 2.857308999999999877e+00 2.536049000000000220e+00 8.848648999999999987e+00 7.908858999999999639e+00 1.797528999999999932e+00 4.897458999999999563e+00 5.206178999999999668e+00 9.945249000000000450e+00 9.457549000000000206e+00 1.117569000000000035e+00 3.460948999999999831e+00 4.113119000000000192e+00 1.386039000000000021e+00 1.536338999999999899e+00 1.095974900000000041e+01 1.256064899999999973e+01 9.271748999999999796e+00 1.225494899999999987e+01 8.185078999999999994e+00 5.947498999999999647e+00 3.483598999999999890e+00 1.277079000000000075e+00 1.010424899999999937e+01 6.249189000000000327e+00 5.530898999999999788e+00 1.270424900000000079e+01 9.725448999999999344e+00 1.537389999999999868e-01 1.233808999999999934e+00 4.103438999999999837e+00 4.677158999999999622e+00 7.474419000000000146e+00 2.566768999999999856e+00 7.226168999999999620e+00 1.042744899999999930e+01 3.900418999999999858e+00 9.918248999999999427e+00 5.105998999999999732e+00 4.739398999999999695e+00 3.369949000000000083e+00 1.147464899999999943e+01 1.276784900000000000e+01 5.964589999999999614e-01 5.799178999999999640e+00 1.316584899999999969e+01 1.018284899999999915e+01 6.924469000000000207e+00 6.219519000000000020e+00 3.873708999999999847e+00 6.754189000000000220e+00 8.712949000000000055e+00 5.933888999999999747e+00 3.639269000000000087e+00 9.120148999999999617e+00 1.044204900000000080e+01 9.470148999999999262e+00 5.378699000000000119e+00 7.816929000000000016e+00 1.523328999999999933e+00 8.456438999999999595e+00 1.140164900000000081e+01 4.956738999999999784e+00 1.323318999999999912e+00 1.118894899999999915e+01 1.112204900000000052e+01 6.770069000000000337e+00 1.239014899999999919e+01 7.714069000000000287e+00 6.939689000000000441e+00 4.809878999999999571e+00 4.602119000000000071e+00 8.978248999999999924e+00 2.758859000000000172e+00 6.307668999999999748e+00 1.319664900000000074e+01 9.825248999999999455e+00 3.573748999999999842e+00 8.418399000000000854e+00 8.665549000000000390e+00 1.108654899999999977e+01 1.119614900000000013e+01 1.116004900000000077e+01 2.994959000000000149e+00 5.964498999999999995e+00 3.005590000000000206e-01 5.066788999999999987e+00 9.987349000000000032e+00 1.106424900000000022e+01 1.024918999999999913e+00 6.155399000000000065e+00 1.040824899999999964e+01 8.988248999999999711e+00 1.284614900000000048e+01 1.044564899999999952e+01 1.322934899999999914e+01 8.163468999999999198e+00 2.738729000000000191e+00 2.133408999999999889e+00 2.072890000000000010e-01 1.278454900000000016e+01 1.309434899999999935e+01 1.899048999999999987e+00 5.793328999999999951e+00 5.456898999999999944e+00 1.066264900000000004e+01 6.627928999999999959e+00 1.226669000000000009e+00 7.024778999999999662e+00 7.710188999999999737e+00 1.263904899999999998e+01 1.057579000000000047e+00 1.501538999999999957e+00 9.554849000000000814e+00 1.042144900000000085e+01 8.349218999999999724e+00 9.978949000000000069e+00 1.306294899999999970e+01 1.079414900000000088e+01 9.232449000000000794e+00 5.557078999999999880e+00 9.845648999999999873e+00 6.770738999999999841e+00 9.372049000000000518e+00 3.316828999999999805e+00 4.097629000000000410e+00 4.862339000000000411e+00 7.739779000000000408e+00 4.585448999999999664e+00 8.384028999999999954e+00 9.083448999999999884e+00 5.686628999999999934e+00 4.689529000000000281e+00 2.446549000000000085e+00 8.059858999999999440e+00 9.061249000000000109e+00 1.207194900000000004e+01 1.208204899999999959e+01 3.581639000000000017e+00 9.233048999999999396e+00 1.117554900000000018e+01 1.135784899999999986e+01 1.233154900000000076e+01 6.922569000000000194e+00 1.430069000000000035e+00 6.899468999999999852e+00 7.540938999999999837e+00 5.953209000000000195e+00 9.144548999999999594e+00 1.089584900000000012e+01 1.283874899999999997e+01 8.535249000000000308e+00 8.654548999999999381e+00 1.525659000000000098e+00 3.786979000000000095e+00 4.133649000000000129e+00 1.229289999999999966e-01 8.219988999999999990e+00 8.291990000000000194e-01 9.182848999999999151e+00 4.898698999999999693e+00 1.589569000000000010e+00 6.472989000000000104e+00 3.672290000000000276e-01 2.728879000000000055e+00 1.272484900000000074e+01 3.140598999999999918e+00 1.040674899999999958e+01 1.280014899999999933e+01 7.767690000000000428e-01 1.118714899999999979e+01 9.053248999999999214e+00 6.364719000000000015e+00 1.155584900000000026e+01 4.640329000000000370e+00 1.210394900000000007e+01 8.622509000000000867e+00 7.441888999999999754e+00 6.319989999999999775e-01 4.644590000000000107e-01 6.359708999999999612e+00 1.195714899999999936e+01 1.115369000000000055e+00 1.764369000000000076e+00 8.176418999999999215e+00 5.573078999999999894e+00 7.330568999999999669e+00 8.660149000000000541e+00 7.830238999999999727e+00 2.062428999999999846e+00 3.528019000000000016e+00 7.769078999999999624e+00 1.085034899999999958e+01 1.297214899999999993e+01 4.680138999999999605e+00 3.417358999999999813e+00 1.239444899999999983e+01 1.112854899999999958e+01 2.729149000000000047e+00 3.246189000000000213e+00 1.307454899999999931e+01 8.828449000000000879e+00 3.790089999999999848e-01 5.759049000000000085e+00 1.146054900000000032e+01 9.200948999999999600e+00 1.471189000000000080e+00 6.521179000000000059e+00 7.275390000000000468e-01 9.537748999999999810e+00 7.212678999999999618e+00 9.677049000000000234e+00 1.634838999999999931e+00 1.126104899999999986e+01 2.749969000000000108e+00 5.457698999999999856e+00 1.305954900000000052e+01 5.424458999999999698e+00 4.408209000000000266e+00 4.433849000000000373e+00 1.199924900000000072e+01 6.149839000000000055e+00 8.741049000000000291e+00 2.781639000000000195e+00 1.074554900000000046e+01 1.051444900000000082e+01 9.399649000000000143e+00 7.753909000000000162e+00 2.369889000000000134e+00 1.145314899999999980e+01 4.183138999999999719e+00 1.189794900000000055e+01 6.451558999999999600e+00 1.241484900000000025e+01 2.216978999999999811e+00 9.361449000000000353e+00 9.315749000000000279e+00 1.022890000000000049e-01 3.432908999999999988e+00 6.289438999999999780e+00 1.193354899999999930e+01 2.541119000000000128e+00 7.816348999999999769e+00 4.550938999999999623e+00 9.632749000000000450e+00 2.669290000000000274e-01 1.338508999999999949e+00 5.074868999999999630e+00 1.762478999999999907e+00 6.735238999999999976e+00 3.511988999999999805e+00 5.143689999999999651e-01 1.074739000000000111e+00 2.189948999999999923e+00 1.311318999999999901e+00 5.642428999999999917e+00 1.146654900000000055e+01 4.069509000000000043e+00 3.453209000000000195e+00 5.732708999999999833e+00 2.659308999999999923e+00 1.843598999999999988e+00 1.251024899999999995e+01 9.284748999999999697e+00 6.874338999999999977e+00 7.843378999999999657e+00 3.482669000000000015e+00 1.033644900000000000e+01 2.848558999999999841e+00 1.246858999999999940e+00 6.662129000000000190e+00 3.706169000000000047e+00 9.940948999999999813e+00 4.704639000000000237e+00 8.908789999999999765e-01 1.210594900000000074e+01 5.683578999999999937e+00 6.821958999999999662e+00 8.366149000000000058e+00 3.789900000000000213e-02 9.222348999999999464e+00 1.100554900000000025e+01 8.807848999999999151e+00 1.100074900000000078e+01 7.175888999999999740e+00 9.011248999999999398e+00 9.686949000000000254e+00 3.320568999999999882e+00 1.012684899999999999e+01 7.310429000000000066e+00 5.467829000000000050e+00 4.765569000000000166e+00 5.184188999999999936e+00 5.240419000000000160e+00 1.058438999999999908e+00 6.827039000000000080e+00 1.218024899999999988e+01 9.840448999999999558e+00 3.538568999999999853e+00 8.390328999999999482e+00 2.689688999999999997e+00 1.115824899999999964e+01 1.324074899999999921e+01 3.794678999999999913e+00 2.259408999999999779e+00 5.879419000000000395e+00 1.285774900000000009e+01 6.952678999999999832e+00 1.034944899999999990e+01 1.369528999999999996e+00 1.548329000000000066e+00 6.905828999999999773e+00 1.049624900000000061e+01 1.186498999999999970e+00 1.063444900000000004e+01 1.100114899999999984e+01 5.165678999999999910e+00 3.282728999999999786e+00 1.531708999999999987e+00 1.361609000000000069e+00 1.230114900000000056e+01 8.663049000000000888e+00 1.204494900000000079e+01 2.732568999999999804e+00 6.698399000000000214e+00 2.007089000000000123e+00 1.162964900000000057e+01 3.712228999999999779e+00 2.470009000000000121e+00 3.634519000000000055e+00 9.701648999999999745e+00 8.208769000000000204e+00 1.294404899999999969e+01 1.237714899999999929e+01 5.188458999999999932e+00 1.060189000000000048e+00 3.208539000000000030e+00 1.023134899999999980e+01 7.264329000000000036e+00 6.884038999999999575e+00 1.230464899999999950e+01 1.113224899999999984e+01 1.066684899999999914e+01 6.941989000000000409e+00 8.080849000000000615e+00 4.222919000000000089e+00 8.491279000000000465e+00 8.527539000000000868e+00 2.973488999999999827e+00 8.514889000000000152e+00 3.495188999999999879e+00 1.121934899999999935e+01 3.697588999999999793e+00 1.233464900000000064e+01 9.812290000000000179e-01 1.546329000000000065e+00 3.824438999999999922e+00 1.141054899999999961e+01 1.221774899999999953e+01 1.225934900000000027e+01 9.343749000000000748e+00 1.585348999999999897e+00 1.271524900000000002e+01 3.966638999999999804e+00 6.932568999999999981e+00 6.730738999999999805e+00 1.161104899999999951e+01 7.936088999999999949e+00 3.667718999999999951e+00 2.404179000000000066e+00 3.357918999999999876e+00 1.014944900000000061e+01 1.042674899999999916e+01 1.019984900000000039e+01 1.143794899999999970e+01 1.529158999999999935e+00 5.318198999999999899e+00 9.253349000000000046e+00 6.744488999999999734e+00 7.412778999999999563e+00 5.882768999999999693e+00 2.310938999999999854e+00 1.306464899999999929e+01 1.381618999999999930e+00 1.272264900000000054e+01 3.419359000000000037e+00 2.985989000000000004e+00 8.827749000000000734e+00 5.341769000000000212e+00 9.379248999999999725e+00 1.157954900000000009e+01 1.041314900000000065e+01 5.201829000000000036e+00 5.883899000000000434e+00 5.845578999999999859e+00 2.544439000000000117e+00 8.798249000000000208e+00 5.443648999999999738e+00 5.984418999999999933e+00 7.299948999999999799e+00 2.024538999999999866e+00 4.253859000000000279e+00 1.304234899999999975e+01 1.189290000000000069e-01 8.254229000000000482e+00 1.520918999999999910e+00 1.087304899999999996e+01 2.032488999999999990e+00