-7.788656881902404712e+04
-7.789997226222112658e+04
-7.789366010724526132e+04
-7.788885840721751447e+04
-7.789487404573138338e+04
-7.787975500725960592e+04
-7.788830723782689893e+04
-7.789633595741246245e+04
-7.790301163377601188e+04
-7.786868957750458503e+04
-7.788401878787133319e+04
-7.790304923686545226e+04
-7.787080498425939004e+04
-7.788828561457560863e+04
-7.788270905392788700e+04
-7.786642293522115506e+04
-7.789183468289360462e+04
-7.790084496953045891e+04
-7.786875052778866666e+04
-7.787790141449222574e+04
-7.788083165833022213e+04
-7.787390649130809470e+04
-7.790796410443384957e+04
-7.786693489632495039e+04
-7.791191309368418297e+04
-7.790013558901357464e+04
-7.788205240021015925e+04
-7.788419069884746568e+04
-7.786842457773706701e+04
-7.786136843546535238e+04
-7.789652151590000722e+04
-7.789379417331801960e+04
-7.788321741911553545e+04
-7.790301167019830609e+04
-7.788695936155297386e+04
-7.787082309237562004e+04
-7.789451036674492934e+04
-7.786487995310488623e+04
-7.788485744591028197e+04
-7.788014672339682875e+04
-7.788630456273051095e+04
-7.788268904047319666e+04
-7.788183711204542487e+04
-7.786967681138143234e+04
-7.787193523312850448e+04
-7.789034572082469822e+04
-7.788387551130347128e+04
-7.790725153088198567e+04
-7.786447546544192301e+04
-7.788982580446510110e+04
-7.787289509710208222e+04
-7.788259911806168384e+04
-7.789727211320222705e+04
-7.788011810274605523e+04
-7.787922574615609483e+04
-7.788495729150311672e+04
-7.788316459635630599e+04
-7.788107257155302796e+04
-7.788463243009100552e+04
-7.788346706895517127e+04
-7.787620692016817338e+04
-7.788532910780682869e+04
-7.786512259529558651e+04
-7.789247498290686053e+04
-7.786834038305011927e+04
-7.787633249953186896e+04
-7.787399428306064510e+04
-7.786343617687562073e+04
-7.787318508027067583e+04
-7.786592424225465220e+04
-7.789095777245154022e+04
-7.786477294668815739e+04
-7.789682579522536253e+04
-7.787418121221012552e+04
-7.788766648719389923e+04
-7.787533932085875131e+04
-7.788154796070815064e+04
-7.787622370901149407e+04
-7.786305008396148332e+04
-7.789011717359450995e+04
-7.790046336985146627e+04
-7.786527186010156584e+04
-7.789722784931502247e+04
-7.789174951427950873e+04
-7.786743759316432988e+04
-7.787386449428714695e+04
