1.386169246339075678e-01 9.605457085134774253e-01 2.268196543140252319e-01 -2.366479540707753515e-01 -4.877331678062039877e-02 -6.414285852861946191e-01 5.578934366709031867e-01 -6.819604873123843447e-01 -6.139630306057394238e-01 2.559877936486215644e-01 1.168911011251598797e+00 -1.310455908407608172e+00 -2.253531483716678885e+00 1.307064108836869742e+00 1.214604660411062048e-01 -6.204329551356108086e-02 -1.527446748744208493e+00 -5.844632189359207780e-03 -1.696569814908446494e+00 -1.202628460895825535e+00 6.384656457582088551e-01 2.970909948444731830e-02 -7.883964536782576138e-01 -4.097125217070737291e-01 -1.296344664650754819e+00 1.071887854337266965e+00 5.958300669515627090e-01 7.890762534102947479e-01 -8.282382715589150513e-01 1.786018501283515469e+00 -1.135802398886291531e+00 2.427671801004581686e-01 5.751085164206276579e-01 1.425769380502594219e-01 -1.333502764829822829e-01 5.012648848625992359e-01 -5.115251299861505174e-01 -2.526723558480854503e+00 5.736352741874307659e-01 1.649568502573060119e-02 -1.148784928262039484e+00 -1.145259431315862608e+00 1.259354200411660019e+00 1.218260769408628930e+00 1.001033387561637428e-02 1.937294510488744903e+00 1.302018061355417977e+00 -4.678935057324880020e-01 9.766392729715430709e-01 8.288152271559993123e-01 -1.645099924909367572e-01 1.412568821560746812e+00 2.163393227416751941e-01 -1.464296336117882014e+00 1.174315470543360745e-01 3.989503972049534553e-01 4.301054852268351159e-01 -1.173221208947464289e+00 -1.948597595140716399e+00 -2.062820405184529804e+00 -1.782108881493290331e-01 1.130275040853261137e+00 1.489012867071052959e+00 8.478568187424828650e-01 6.465810764473224961e-03 -4.375349455358146233e-01 -8.549114121795599042e-01 1.526320091245802146e+00 -6.846210650836093148e-01 2.101702173065403967e-01 1.011413446102408464e+00 -5.142762105961340424e-01 -6.810210061395918224e-01 1.752107190444903040e+00 -5.299100617709613381e-01 -6.153092603322697363e-01 1.006252727410484465e-01 -4.534562460678346341e-01 2.321518141789153500e+00 8.457587983894487849e-01 2.811887204774193849e-01 2.688499953864749784e-02 -2.622164972599614785e+00 -8.250315914310912824e-01 -5.393300703119494749e-02 2.338450914388432889e+00 -5.102951141321168116e-01 -6.390395160312446476e-01 9.141311219679960631e-01 1.504388579467149378e-01 -9.320851368273552762e-01 -4.399728657548673261e-01 -1.354400693052201454e+00 -1.349691974333394384e+00 -1.612325041761981437e+00 -2.164428867855725525e+00 -8.410372241537724669e-01 -1.091521313920402969e+00 -6.256337830401663691e-01 -7.266812309551955174e-02 -3.310408722336931620e-01 6.610877559030688966e-01 -8.148885886213859120e-01 1.779033327637531414e+00 9.217205049068269984e-01 2.135908132350655964e-01 2.836531230612223453e+00 4.748761082750982410e-01 1.466525996963655487e+00 -1.056565620891346091e+00 -6.799092610407536652e-01 -1.089638752030094720e-01 2.623795566359288789e-01 -1.260487028558163303e+00 -8.776888169681985596e-01 -1.504666258631521258e-01 1.448787954787696952e+00 -1.054827555010646289e+00 1.083267557869777853e-01 4.151576044321419467e-01 6.779485376078813949e-03 2.065110229849250259e-02 4.601143753646693563e-02 -1.260271570095437443e+00 9.250176878734089891e-01 6.079322505321159698e-01 -9.907320047841049471e-01 -1.593401720930693655e+00 7.936918981869696132e-01 -1.832892801112235404e+00 -2.066538734883742734e+00 3.639714099793298185e+00 5.169732980352672591e-01 -1.766356245342592501e+00 -6.863221070757263842e-01 7.257813447743598212e-02 1.439082553772215167e-01 1.952316953281278522e+00 -1.690839853929559378e-01 -3.815527691156881396e-01 -1.017200999796868954e+00 1.236856531670092574e+00 -1.760582575606350897e+00 2.221788127242868005e-01 2.254965645178593214e-01 9.912621662997858074e-01 4.940508830163454768e-01 1.504940338251170129e+00 2.719944548126523309e-01 -5.492617284243270781e-01 2.107173995265560151e+00 4.786792843856473301e-01 1.476063762039164562e+00 2.494026836876033215e-01 -3.855611192754676564e-01 -6.555850804624271944e-02 7.019086499484754604e-01 -8.356373928480834712e-01 6.108627941575917042e-01 -2.839677232700424714e+00 -1.688731549163030032e-01 -1.391514056032565172e+00 -6.005300439188987482e-01 -5.652478207613673700e-01 -1.099701536414536829e+00 7.363213259449824521e-01 -7.123792113280049687e-01 3.325891906854052671e-01 -1.591738217047834469e+00 1.067229015023911792e-01 8.211692799429443079e-02 1.205369257092313989e-01 9.851979618823027973e-01 2.030560771153256727e+00 7.986772676287993977e-02 4.301975307276176830e-01 -2.317983388870830941e-01 -5.160189044629067689e-01 1.609977624381687678e+00 -7.460709499384937660e-01 -2.294807463059250763e-01 5.631564852771051566e-01 -4.944941412379914580e-01 -3.090466255327189884e-04 -2.240237850832698552e+00 -1.758236186667406109e+00 3.480312375485459797e-01 -8.379971515245722147e-01 -1.131269029417578675e+00 1.785123757309427184e+00 -5.912936121588011629e-01 1.167101468697106847e+00 7.896372681664613757e-02 -2.302525915387447497e-02 1.454411472086908075e-01 1.130420565304219194e+00 5.826835011805652220e-01 -7.569024942317070792e-01 1.523008510100326562e-01 1.278691983106806873e+00 -1.041487642265937819e+00 4.883672018981872198e-01 -1.115779674252359577e+00 1.591245593641411327e-01 -8.260533479118459255e-01 1.790972503264184557e+00 3.370659444578267383e+00 3.154301609892301017e-01 9.631111554598713598e-01 -7.310701044142999816e-01 -1.103240403098257438e+00 2.571529662755676071e+00 7.033248136867734646e-01 -5.993313955260256565e-01 -2.195065621437445547e+00 -2.412540343428998035e+00 4.870369130125745682e-01 -6.101691104673361010e-02 -1.536280031495291798e+00 6.424405715741287048e-01 1.490599752073372475e+00 1.165505327722641704e+00 1.207355177338249597e+00 -2.751003476882223908e-01 2.281430526425959115e+00 -1.844797523953679297e-01 -7.541570700491460055e-01 -7.335563613767802360e-02 -8.748472335194569238e-01 1.151031558390080110e-02 -3.538804977239780603e-01 4.589162411924710416e-02 5.939613890194729295e-01 -2.235914797619964034e+00 -2.826583631658927676e-01 -1.801076939523282849e+00 -2.140983490410569290e-01 1.649455374024612342e-01 5.406860702313002198e-01 -4.936014541466023919e-01 -1.143493083298050828e-01 3.643176347596479570e-01 -1.239344331294597090e+00 -1.136792787905885477e-01 2.222701897381922365e+00 1.784116399007566134e+00 -8.198667589737690387e-01 -1.073368809880584918e+00 7.049091275857190253e-02 1.302819217166699128e-01 -1.463315203070433945e+00 -1.344234550312132015e+00 -8.232030227116330368e-01 -7.528170109707129631e-01 -3.899438220864749616e-02 7.271481433278805806e-01 -1.347009285073154539e+00 3.066040259055260453e+00 4.750607134973382495e-01 -2.417299969994606695e-02 -1.217567085718372910e+00 1.317286815851163695e+00 3.565832415905337838e-01 4.994825960038697388e-01 5.079914055091774294e-01 3.568485794587115956e-02 1.004560941390513357e-01 -1.216879058455539786e+00 -8.009501230112531928e-03 6.989287411382225090e-02 -1.912130093327855329e+00 1.178969681870642994e+00 -2.081667107135277917e+00 -7.585228035778860400e-01 1.240612913699238096e+00 -7.890613410107263914e-02 7.356070734277361245e-01 -6.397625102999617841e-01 4.263146504124803310e-02 2.078700568062568976e+00 -1.275507414467998091e+00 -3.863802728103655770e-01 9.047141987510564087e-01 -4.452040326792338631e-01 7.058738055715749748e-01 -2.192697121009486327e+00 -1.877890709698743832e+00 6.497625597620828586e-01 4.538645372835967140e-01 3.216136646032582980e-01 -1.028254173200905397e+00 -5.494303928056494257e-01 -1.356785648541753764e+00 7.878529224250328811e-02 -7.782318536002122422e-02 2.706240567144082565e-01 1.423225016603865800e+00 6.901612786335087346e-01 -8.489217697599174550e-02 4.677423248541076051e-01 2.051154280736175728e-01 -5.210217574076784208e-01 -1.484399279177076814e+00 1.097804576345335209e-01 3.472883429397155108e+00 9.439363807186240685e-01 1.320983548282036457e+00 8.302930973752687960e-01 1.027197449714266630e+00 -1.227455035073395928e+00 1.491031183219498679e+00 -4.222523070818505753e-01 -8.864835331686744535e-01 8.613689954132368598e-01 1.888060966204211599e+00 1.883595473864567438e-01 -1.407715092611656338e-01 -2.191197139301201413e-02 1.071367463014406551e+00 -2.653602881992616069e+00 7.347678652865224924e-01 2.734430144534604201e-01 1.277384834151558790e+00 3.189505157286593451e-01 9.360101832378232845e-02 -7.911423920814933952e-01 -2.934389996123045186e-01 -5.611674797071207754e-01 -1.603323608850250936e+00 -7.408022449048694558e-01 -3.066950943870265789e-01 -9.116746898046518277e-01 -1.798260552887604447e-01 1.992371658521288502e+00 -9.513673836896280323e-01 -4.697272166586937692e-01 1.915708555003532987e-01 -7.997571310458022609e-01 8.924608342921226400e-01 1.431955455219996454e-01 1.946448666940880645e-01 1.725169740397429763e+00 -7.731719221605417580e-01 -6.581993783729236380e-01 3.109692966356588095e-01 8.484707982281500804e-01 7.815835439583191935e-01 -7.065104107669318845e-01 2.985565237675485289e-02 -1.099690223559692148e+00 4.129860505226166101e-01 -1.072107426565390709e+00 -1.842606943879188108e-02 -1.244185204726818483e+00 1.685316095441252715e+00 4.375462583906594149e-01 5.344799409075824403e-01 9.557104915086782615e-01 -3.817060068767675306e-03 9.196538520149535323e-01 4.038714890624378606e-01 1.142778316560129737e+00 1.251996730997147145e+00 -6.152964048154005994e-01 9.967550715476070078e-02 -1.573741521872470128e-01 3.713079506123797002e-01 9.211990851426169469e-01 7.871587245141024036e-01 5.443200677398521981e-01 1.834253943238333351e+00 -6.494679113154434580e-01 1.585241038822200688e+00 4.757615962770405660e-01 8.381725007746664291e-01 -8.126301314178258073e-01 -3.572553280124493025e-01 -8.269696891542739348e-01 3.150198128907690243e-01 -1.550051889606801625e+00 -1.288328478551870396e-02 6.221766774437329506e-01 7.235696816522030339e-01 -1.354485025242862628e+00 1.424776934600301415e+00 -2.084789455072440234e-01 9.570258679947228897e-01 -2.227897068859055474e-01 4.732018057580691384e-01 5.241934705296181773e-01 -9.415123444577901124e-02 1.535375517328383399e-01 4.612184071533860785e-01 7.369363338719991940e-01 7.154079711023605403e-01 5.245158868926946827e-01 -7.937340642823002002e-01 7.779341198295243176e-01 2.133530375950551061e+00 -2.432232938389731758e-01 -9.086017070522667272e-01 6.184079541183931106e-01 6.650693665877607241e-01 3.284651408738039624e-01 -3.572686977499931471e-01 5.612332999534905831e-01 1.385568122370277377e+00 -2.575515387205766782e-01 -1.112130250123564812e+00 7.392384998329143420e-02 5.677484759027411343e-01 3.342722349539054005e-01 -1.377910862302377804e-01 5.456138469575565891e-02 3.757873269102424141e-01 -5.794912192316348243e-01 -5.605905241100365144e-01 -1.251844521677417110e-01 1.049684319821664324e+00 -3.578374258162813626e-01 -1.895751650615970785e-01 6.011167697088036777e-01 -2.061356418923478429e-01 4.733139058651674169e-01 -2.279359245548012947e+00 -1.269213867629570558e+00 1.383854739081966434e+00 -1.829684064101712249e+00 1.395594911307486505e-03 -2.727312816175206045e+00 -4.066457096027856211e-01 -1.273374427109080109e+00 -5.548389658628093829e-02 -2.917775526121444418e-01 3.296005401236812293e-01 -1.607811212678909918e+00 5.169403879120824108e-01 -9.515345054089261456e-01 9.199865527915251917e-01 -5.464160312101871142e-01 -1.738950340260410066e-01 -2.478543652358911054e-02 -8.696186376984639255e-01 -9.468617821373521704e-01 -3.269029384638731384e-01 1.843527398887014002e+00 6.282732777637262123e-01 -2.679084573309834516e-01 -1.645892338969177748e+00 -9.547586690396916431e-01 6.530191192953585522e-02 -2.875115778943084788e-01 -7.311338677779706252e-01 -2.908072181988661797e-01 1.236116568119107972e+00 4.492458071828731025e-01 -2.522170134405826158e-01 -7.578059799572660626e-01 6.572676105102525090e-01 -5.654869333751322280e-01 -1.829469119859661319e+00 -3.249931228778024650e-01 -1.306436759613658571e+00 -1.558832721849058967e+00 4.052367449539343025e-01 -9.878641960809502187e-01 9.507729445896014875e-01 -5.969484969191727330e-01 1.176225800350106265e+00 -2.152401246273012436e+00 -8.714353793424024497e-01 -8.612764356917795849e-01 -1.187024434520134397e+00 8.910590687327181181e-01 1.211812442147097491e+00 -2.013424367166770867e+00 3.180249185140855694e-02 1.034378541437335874e+00 1.553505909879186131e+00 7.489968655778966866e-01 -6.595394374513566076e-03 1.489269463187759879e+00 6.331763718975939037e-01 -5.127181219516012689e-01 5.061191280323643626e-01 2.014783452410170150e-01 5.794217994405418404e-01 -5.469986432346939376e-01 4.462489290903528527e-01 5.559887632915800904e-01 6.430987740378257822e-01 1.177850737682357929e+00 6.716976710854591914e-01 7.381025863623621452e-01 -4.248774036265169918e-01 -7.942616546946074108e-01 1.305340441135063312e+00 -1.155194174752288916e+00 8.241003377890949722e-01 5.439534283987459418e-01 3.246640216459539263e-01 -1.498814427352715417e-01 7.259618362312016959e-01 -1.211366612822077693e+00 6.962974739454587114e-01 -6.327331136759480057e-02 -3.487028097497867907e-01 1.141416145992681930e+00 1.177858450992479433e-01 -2.376666252274814151e-01 -3.663179531844770187e-01 1.499476229361135671e+00 -1.249079042888540325e+00 -5.404253603491953467e-02 -1.563117722731861281e-01 -7.299938405420204335e-01 1.776940963711919896e-01 1.257473695404050407e+00 -1.639582337069157847e-01 1.180393558919062141e-01 5.210582670755866674e-01 3.487084661772092004e-02 -2.391444954467510375e-01 -1.337817076291086815e-01 -4.756998897960689754e-01 1.734199969666947228e+00 -2.461666929813181026e-01 -2.371040678092904141e-01 -1.045883714814488663e-01 -2.589641029141513395e-01 2.546445978240724717e+00 -5.074195921188406899e-01 6.736527380909090867e-01 -2.662341548139542935e-01 -1.674323085856163629e-01 -2.151320868635334893e+00 2.418371605880813568e+00 9.480995113015074083e-02 -9.646034238580342146e-01 8.194404700343904668e-01 5.111806021340591366e-01 -1.879353153297770584e-01 4.885523213411019361e-01 1.691502684379329269e+00 1.225341588100118673e-01 1.808688948171803257e-01 -2.979559140194250610e-01 -1.613059863106218295e+00 1.033529563103301463e+00 6.175872579214709557e-01 2.663940774438056658e-01 -9.187051148700150494e-01 6.146716266955633001e-01 -5.086218400564371800e-01 4.577875268113656415e-01 9.890546169430272094e-01 1.116857480786663359e+00 -1.288951714009683558e+00 -3.859709531532540261e-01 4.336278968489633567e-01 -5.666506147621214184e-01 -2.348372288087315241e+00 1.037700406996306279e+00 -1.945708703389896321e+00 2.008262105812822718e+00 1.347875232689455860e+00 -6.731539440363887294e-01 1.380740104454925232e+00 -2.477552749118642428e+00 -4.349386453489350046e-01 -3.285201624860036723e-02 8.834532307322947586e-01 -1.280728811199544293e+00 3.362674111719868852e-01 9.348439307474600835e-01 -5.239764694048680838e-01 -3.566773439740154039e-01 6.997864612237275628e-01 1.252307320284704151e+00 1.303884168184133774e+00 5.288548809463471390e-01 1.064577693224832311e+00 -1.047048938863502254e+00 -1.094444144235757088e+00 -9.611658586472418553e-02 -6.617449299254162254e-01 -7.852231978942935120e-01 -1.821061097606607379e-02 -2.259135974850923489e-01 2.269279491881303734e+00 1.318907125197342323e+00 -7.623979705829019293e-01 1.523632259778814779e+00 6.274896054553870117e-01 3.271492501670847930e-01 -1.224215959043062130e+00 -1.709236098569214990e+00 5.558735778604331212e-01 1.484807570392838949e+00 -1.472249787294445666e-01 -8.554276897370224342e-01 1.276097225581951600e+00 -2.951359278390233154e-01 1.289151231631491777e-02 -1.734091469104572125e+00 -7.549715955979710014e-01 1.658050572603280370e+00 -1.021156385227147911e+00 -1.623769022878837953e+00 -8.734963758068536865e-02 -4.120306285089064824e-01 1.755616232329487436e-01 -8.557624473962931466e-01 -2.260981512852648923e+00 1.259984634958919658e+00 -1.019538646984342822e+00 5.196878689773425375e-01 -1.219103577094565516e+00 -1.502979614818297782e-01 9.143481230927461567e-01 -7.869098417075169882e-01 -5.166827633540260756e-01 -5.100657717111724970e-02 -5.058260222477493073e-01 2.528476536761122162e+00 1.203194617858740045e+00 8.558431800422310054e-02 -1.931539352696794554e+00 1.756613820438527873e-01 -3.271317666641427868e-01 -1.333510992360618985e+00 2.638142323185184157e-01 -5.467610732829533138e-01 1.023541340716699999e+00 6.365820554265509967e-01 -6.126286279547288327e-01 3.003398410676275110e-01 8.280115002413442893e-01 -5.101732438321978647e-01 8.955055349073959281e-01 6.561167846401324555e-01 -5.789955105011630465e-01 8.139758469236811900e-01 -1.239438433678078821e+00 6.207702838982555038e-01 -1.171289281872378796e+00 -1.021273113320319281e-01 -8.556966271499234500e-01 -2.384821792176559097e-01 5.231372612636545627e-01 -1.289413998396295780e+00 6.052757865262889947e-01 -3.447798202220179326e-02 -3.350183691529869390e-01 1.143306935413786585e+00 6.649387545363708019e-02 1.830527900228998972e-01 2.522427244743207786e-01 -7.525419029097145662e-01 1.305540987198221092e+00 -8.734398115326297285e-02 6.732593592747151412e-01 1.288688433024204605e-01 3.553830505356362912e-01 -1.394707880643519804e+00 4.964620637603103792e-01 -5.729847850338553039e-01 -1.163717382436489700e+00 -1.250502405716285015e+00 8.531090687145147511e-01 -1.788271302059653456e+00 2.224174111173769230e-01 -8.820951739302449468e-01 1.265810240983312518e+00 -8.593943880221461828e-01 1.934256494742243593e-01 -1.328411980149666605e-01 -7.469250704792753659e-01 -8.767431651473088783e-01 3.165650460184326054e-01 6.219961859868911036e-01 -1.781814233046650875e+00 1.264880015782665970e-02 9.767570295060638008e-01 2.195084647602411898e-01 9.303275305610143597e-01 5.228683238507533249e-01 7.399470959227379963e-01 9.225987938193226379e-01 1.297503203830996377e+00 3.063875904235182079e-01 7.010077353262902378e-01 6.636655441456570381e-01 -5.442290506804191574e-01 7.962357478650234910e-01 4.650010144369446374e-01 -2.343766413503460891e-02 2.349870212912900769e+00 8.137315921031686994e-01 -6.319792661667450462e-01 -7.074648043392923746e-01 -5.097510686582171768e-01 3.993689728342107448e-01 -6.821471494173234618e-01 6.934368643317507797e-01 6.470351333031384433e-01 1.501958372558217958e+00 1.467243849025624991e+00 -4.178634336227461943e-01 -5.565045266283675796e-01 3.413237430669340267e-01 -5.938965972144527594e-01 -3.807932651790627565e-01 9.312690686165058240e-01 8.464478540936315465e-01 1.396504053460468020e+00 -2.177959556470771219e+00 1.013912044361083176e+00 4.280012942257038211e-01 -5.954264037218735123e-02 1.179076125550318821e+00 -7.664207189215749283e-01 3.709531383467929988e-01 -1.969156137717751553e+00 -1.229162247713609796e-01 2.021432325734858981e+00 8.448799952562782711e-02 -1.441690166813939689e+00 1.617999981128668940e+00 1.767242247565209645e+00 -1.706128148810945877e+00 -5.237856935345309717e-01 -1.428999200560782556e+00 6.657409387890016461e-01 3.106144843700721636e-01 -2.317863061232936506e+00 -7.463563424129873169e-01 -1.887153880933929162e-01 -9.263191804012347319e-01 2.549156435417402333e-01 4.129706239023737263e-02 -1.204086276508779418e+00 7.264014949081242234e-01 -8.829374673955071862e-02 -7.278294857219418379e-01 -1.328275197450179634e+00 2.973223941481166824e-02 -2.728341771745407263e-01 -1.581629667023338737e-01 -3.503390599368835234e-01 -5.937351319225772084e-01 -2.819507955174185287e-01 -1.958517426177573961e-01 8.995982172578367853e-02 -2.256477453962397461e-01 1.280483013717007346e+00 -5.637704647627724830e-01 1.248885695914829341e+00 -9.832305535806584729e-01 1.306367339822565588e-01 -6.624684384148082916e-01 -9.376628884865123581e-01 -4.254384183826837029e-01 -1.532788987334324053e-02 -1.969881703089842173e-01 7.865041215951287246e-01 3.753810925771794427e-02 1.071692450480856845e-01 4.046875572732871462e-01 7.983877613889077685e-01 4.111076023977064398e-01 -1.929613082049131192e-02 -9.086279323066797087e-01 8.317838231114077496e-01 -4.706970368512972819e-02 -2.287181570452511414e-01 6.475838067631109474e-02 -2.189561917555454540e-01 9.198430852232662713e-02 -1.231224786840085406e+00 -1.478148926875329616e+00 -8.312788584087901222e-01 -5.953184173801731038e-01 -9.485057456345703519e-01 -2.711876425739487839e-01 1.515238635704654058e-01 1.072263235429844253e+00 4.660639085716802854e-01 4.250409258010917624e-01 -8.324620801814204274e-01 -1.255705290503539739e+00 4.632043273993217691e-01 9.653001928723384251e-02 7.647644141281624286e-01 -1.436516592605146525e-01