8.402207999999999899e+00 2.021479999999999944e-01 1.510548000000000002e+00 4.303728000000000442e+00 6.621527999999999636e+00 5.090417999999999665e+00 5.667168000000000205e+00 6.391047999999999618e+00 1.676228000000000051e+00 9.460508000000000806e+00 9.008880000000000221e-01 3.511838000000000015e+00 3.771818000000000115e+00 6.063247999999999749e+00 1.168680799999999920e+01 3.994677999999999951e+00 3.548567999999999945e+00 2.565528000000000031e+00 9.908580000000000165e-01 2.176617999999999942e+00 2.180768000000000040e+00 1.112210800000000077e+01 8.081108000000000402e+00 7.671348000000000056e+00 7.448438000000000336e+00 9.816608000000000445e+00 8.819708000000000325e+00 3.985538000000000025e+00 7.162479999999999958e-01 9.165108000000000033e+00 1.120110799999999962e+01 5.142958000000000141e+00 1.126079999999999998e-01 7.040079999999999671e-01 1.019640799999999992e+01 9.468908000000000769e+00 1.690587999999999980e+00 7.718177999999999983e+00 7.474948000000000370e+00 2.837488000000000010e+00 2.387347999999999804e+00 6.219377999999999851e+00 8.926607999999999876e+00 1.596808000000000005e+00 1.144540800000000047e+01 5.504787999999999570e+00 7.300408000000000008e+00 7.235917999999999850e+00 4.679998000000000324e+00 3.495168000000000053e+00 5.042317999999999856e+00 1.098670800000000014e+01 2.114457999999999949e+00 3.518787999999999805e+00 5.324579999999999869e-01 1.160368000000000066e+00 1.051750799999999941e+01 2.582488000000000117e+00 1.948979999999999879e-01 5.394758000000000386e+00 6.604528000000000176e+00 4.735117999999999938e+00 5.676368000000000080e+00 7.666768000000000249e+00 2.435080000000000022e-01 6.744468000000000352e+00 6.297977999999999632e+00 5.936887999999999721e+00 1.135210799999999942e+01 1.673627999999999894e+00 4.992067999999999728e+00 8.771708000000000283e+00 8.836608000000000018e+00 7.726248000000000005e+00 2.483380000000000032e-01 3.483298000000000005e+00 5.488728000000000051e+00 7.104738000000000220e+00 5.267698000000000214e+00 9.519408000000000314e+00 8.339608000000000132e+00 2.983048000000000144e+00 8.485908000000000229e+00 3.034947999999999979e+00 5.630087999999999759e+00 3.866487999999999925e+00 1.064420800000000078e+01 2.469478000000000062e+00 2.815087999999999813e+00 8.543808000000000291e+00 9.947507999999999129e+00 8.755407999999999191e+00 1.000600799999999957e+01 1.062350799999999929e+01 1.012810799999999922e+01 8.135007999999999129e+00 1.101680799999999927e+01 8.871580000000000021e-01 6.484180000000000499e-01 5.602567999999999770e+00 8.765408000000000754e+00 2.087038000000000171e+00 1.653397999999999923e+00 9.742508000000000834e+00 1.460388000000000019e+00 2.891977999999999938e+00 1.411178000000000043e+00 1.120120799999999939e+01 2.076147999999999882e+00 3.631179999999999963e-01 7.679068000000000005e+00 1.124400799999999911e+01 1.125240800000000085e+01 3.900688000000000155e+00 5.829098000000000113e+00 1.248237999999999959e+00 7.417737999999999943e+00 7.617137999999999742e+00 7.718797999999999604e+00 9.980807999999999680e+00 7.929357999999999684e+00 6.952878000000000114e+00 7.086628000000000149e+00 3.514088000000000100e+00 3.805067999999999895e+00 1.154210800000000070e+01 2.227387999999999924e+00 3.664279999999999760e-01 1.324797999999999920e+00 8.537008000000000152e+00 1.008000799999999941e+01 3.412799999999999861e-02 7.808098000000000205e+00 3.871497999999999884e+00 1.017679999999999974e-01 9.901208000000000453e+00 7.449697999999999709e+00 5.540907999999999944e+00 1.397157999999999900e+00 7.055418000000000411e+00 1.084150799999999926e+01 7.938968000000000025e+00 1.098290800000000011e+01 3.536707999999999963e+00 8.951508000000000465e+00 2.713027999999999995e+00 5.063488000000000433e+00 1.126450799999999930e+01 7.489417999999999687e+00 1.141680799999999962e+01 9.714207999999999288e+00 9.081808000000000547e+00 3.483038000000000078e+00 8.123307999999999751e+00 9.215607999999999578e+00 6.343327999999999633e+00 6.365967999999999627e+00 1.043430799999999969e+01 5.357677999999999940e+00 1.055240799999999979e+01 1.065880800000000050e+01 1.565547999999999940e+00 4.835268000000000121e+00 1.291887999999999925e+00 5.059268000000000320e+00 1.010830799999999918e+01 6.047888000000000375e+00 7.548358000000000345e+00 6.081497999999999848e+00 2.766779999999999795e-01 3.018498000000000125e+00 8.190108000000000388e+00 5.507927999999999713e+00 1.510658000000000056e+00 1.046850799999999992e+01 1.445178000000000074e+00 9.312008000000000507e+00 6.880618000000000123e+00 2.473257999999999956e+00 3.948027999999999871e+00 1.087468000000000101e+00 2.037218000000000195e+00 4.630767999999999773e+00 5.570967999999999698e+00 5.282058000000000142e+00 8.674307999999999907e+00 2.355268000000000139e+00 9.334607999999999350e+00 5.223017999999999716e+00 1.181030799999999914e+01 4.157577999999999996e+00 4.324258000000000379e+00 1.688018000000000018e+00 4.585677999999999699e+00 2.499007999999999896e+00 4.082417999999999658e+00 1.159620800000000074e+01 2.938887999999999945e+00 6.809777999999999665e+00 1.848978000000000010e+00 1.212687999999999988e+00 4.662658000000000413e+00 3.318718000000000057e+00 7.704037999999999720e+00 1.084220799999999940e+01 2.152607999999999855e+00 7.006657999999999831e+00 2.901177999999999813e+00 1.045110799999999962e+01 9.034107999999999805e+00 1.046190799999999932e+01 5.503178000000000125e+00 9.788207999999999132e+00 8.912980000000000347e-01 7.061378000000000377e+00 2.963248000000000104e+00 8.910208000000000794e+00 3.359627999999999837e+00 9.627508000000000621e+00 1.164670800000000028e+01 4.241568000000000005e+00 7.907137999999999778e+00 1.137610800000000033e+01 5.251127999999999574e+00 2.364008000000000109e+00 3.592868000000000173e+00 8.181507999999999114e+00 7.202279999999999793e-01 7.179438000000000208e+00 8.819708000000000325e+00 3.967637999999999998e+00 6.621477999999999753e+00 6.664547999999999917e+00 4.388087999999999766e+00 8.139507999999999299e+00 5.529747999999999664e+00 8.703108000000000288e+00 8.971508000000000038e+00 6.859107999999999983e+00 3.498117999999999839e+00 1.112160800000000016e+01 3.472087999999999841e+00 1.056780799999999942e+01 1.869987999999999984e+00 1.096130800000000072e+01 3.368538000000000032e+00 4.683848000000000233e+00 9.517008000000000578e+00 4.193188000000000137e+00 8.344208000000000069e+00 4.705517999999999645e+00 3.901597999999999900e+00 9.868207999999999203e+00 3.519680000000000031e-01 7.162218000000000195e+00 6.188418000000000418e+00 1.038320799999999977e+01 1.560380000000000100e-01 1.023660800000000037e+01 4.211858000000000324e+00 5.889438000000000173e+00 1.079920800000000014e+01 7.590487999999999680e+00 1.728637999999999897e+00 2.755580000000000251e-01 4.391799999999999871e-02 6.171377999999999808e+00 5.062558000000000114e+00 7.406848000000000098e+00 9.779807999999999168e+00 2.778967999999999883e+00 6.786698000000000341e+00 9.222507999999999484e+00 3.572380000000000000e-01 1.086850800000000028e+01 6.490799999999999348e-02 6.454118000000000244e+00 4.102617999999999654e+00 2.218247999999999998e+00 4.564297999999999966e+00 9.595807999999999893e+00 1.073420800000000064e+01 4.427617999999999832e+00 1.276267999999999958e+00 1.171937999999999924e+00 7.186968000000000245e+00 3.431697999999999915e+00 7.759628000000000192e+00 1.048090799999999945e+01 9.786407999999999774e+00 5.716628000000000043e+00 1.067687999999999970e+00 3.492748000000000186e+00 1.712079999999999991e-01 2.137868000000000102e+00 9.337908000000000541e+00 1.102560800000000008e+01 3.725337999999999816e+00 1.036790799999999990e+01 6.759698000000000206e+00 6.897567999999999699e+00 2.613800000000000151e-02 9.065307999999999922e+00 2.403237999999999985e+00 4.185448000000000057e+00 4.985307999999999851e+00 5.738678000000000168e+00 1.480817999999999968e+00 1.071720799999999940e+01 3.489618000000000109e+00 6.063927999999999763e+00 2.966277999999999970e+00 9.061707999999999430e+00 1.126030800000000021e+01 1.010520799999999930e+01 1.043948000000000098e+00 7.569058000000000064e+00 5.141297999999999924e+00 6.630758000000000152e+00 1.119970799999999933e+01 4.206997999999999571e+00 9.835608000000000573e+00 1.110070799999999913e+01 7.843008000000000202e+00 1.606397999999999993e+00 7.098227999999999760e+00 6.294667999999999708e+00 1.719678000000000040e+00 3.678538000000000086e+00 9.219507999999999370e+00 1.184250800000000048e+01 2.924138000000000126e+00 7.499477999999999867e+00 2.616108000000000100e+00 2.793417999999999957e+00 1.147070800000000013e+01 6.580738000000000198e+00 5.383780000000000232e-01 1.025300799999999946e+01 4.031048000000000187e+00 8.481108000000000757e+00 2.079657999999999785e+00 5.337638000000000105e+00 4.722728000000000037e+00 5.196557999999999566e+00 1.071860799999999969e+01 7.061988000000000376e+00 6.644508000000000081e+00 2.806868000000000141e+00 9.383407999999999305e+00 6.508887999999999785e+00 6.979117999999999711e+00 1.104260799999999954e+01 6.440748000000000140e+00 5.923977999999999966e+00 2.734818000000000193e+00 7.810577999999999577e+00 8.100607999999999365e+00 1.106930799999999948e+01 9.153807999999999723e+00 1.201278000000000068e+00 7.512879999999999558e-01 5.334608000000000239e+00 8.972607999999999251e+00 1.129037999999999986e+00 2.300107999999999819e+00 3.444418000000000202e+00 8.633108000000000004e+00 4.371357999999999855e+00 8.291707999999999856e+00 6.658868000000000009e+00 7.684980000000000144e-01 7.278658000000000072e+00 9.009107999999999450e+00 9.883407999999999305e+00 1.030480799999999952e+01 7.951908000000000420e+00 5.628379999999999495e-01 8.654108000000000800e+00 7.802527999999999686e+00 6.225068000000000268e+00 5.214818000000000175e+00 5.943768000000000384e+00 3.498279999999999723e-01 2.140017999999999976e+00 8.119507999999999726e+00 1.040080799999999961e+01 2.828558000000000128e+00 7.686708000000000318e+00 8.206108000000000402e+00 1.374738000000000016e+00 4.416477999999999682e+00 3.967468000000000217e+00 1.166770799999999930e+01 2.484780000000000044e-01 1.141130800000000001e+01 2.686987999999999932e+00 4.855847999999999942e+00 6.204367999999999661e+00 6.912087999999999788e+00 4.813737999999999850e+00 8.551607999999999876e+00 4.978387999999999813e+00 1.448180000000000023e-01 1.922997999999999985e+00 4.176779999999999937e-01 2.606717999999999869e+00 1.112320799999999998e+01 1.014070800000000006e+01 2.744517999999999791e+00 9.809307999999999694e+00 7.605908000000000335e+00 7.437287999999999677e+00 3.813867999999999814e+00 4.551998000000000211e+00 8.542707999999999302e+00 1.169290799999999919e+01 1.175920799999999922e+01 2.660188000000000219e+00 4.557748000000000133e+00 1.106250799999999934e+01 8.846180000000000154e-01 6.341377999999999737e+00 6.292879999999999585e-01 7.251958000000000126e+00 2.183799999999999977e-02 1.698447999999999958e+00 9.894308000000000547e+00 8.689007999999999399e+00 8.292208000000000467e+00 2.996147999999999811e+00 8.399508000000000862e+00 4.713638000000000439e+00 6.325047999999999782e+00 2.634358000000000199e+00 3.822407999999999806e+00 2.982498000000000093e+00 8.730207999999999302e+00 6.581997999999999571e+00 1.620208000000000093e+00 2.759097999999999828e+00 8.691207999999999601e+00 4.364408000000000065e+00 9.598879999999999635e-01 1.059960799999999992e+01 3.933727999999999891e+00 1.173770799999999959e+01 5.615167999999999715e+00 1.429588000000000081e+00 3.859779999999999878e-01 3.905028000000000166e+00 2.353317999999999799e+00 1.973627999999999938e+00 9.956407999999999703e+00 1.454908000000000090e+00 8.058308000000000249e+00 6.134368000000000265e+00 1.057570800000000055e+01 8.594208000000000069e+00 5.510168000000000177e+00 2.537408000000000108e+00 4.545598000000000027e+00 7.873007999999999562e+00 6.997448000000000334e+00 8.777307999999999666e+00 3.351818000000000186e+00 6.127479999999999594e-01 4.806579999999999742e-01 1.134540800000000083e+01 1.048880800000000058e+01 9.216207999999999956e+00 4.146338000000000079e+00 2.919407999999999781e+00 6.436277999999999722e+00 9.638108000000000786e+00 7.830438000000000009e+00 2.677928000000000086e+00 5.973887999999999643e+00 9.843408000000000158e+00 1.351528000000000063e+00 8.834079999999999711e-01 5.737167999999999601e+00 2.301628000000000007e+00 1.146830800000000039e+01 1.078840800000000044e+01 5.292658000000000307e+00 4.803808000000000078e+00 5.056079999999999464e-01 3.898067999999999866e+00 7.400558000000000192e+00 1.138080800000000004e+01 2.232117999999999824e+00 3.932598000000000038e+00 6.713598000000000177e+00 1.023880800000000058e+01 1.112050799999999917e+01 9.382507999999999626e+00 6.965358000000000160e+00 3.002997999999999834e+00 6.890678000000000303e+00 6.684480000000000421e-01 4.996978000000000364e+00 8.777407999999999433e+00 9.595408000000000825e+00 1.792267999999999972e+00 3.012728000000000073e+00 5.651277999999999579e+00 2.164147999999999961e+00 1.862897999999999943e+00 7.484047999999999590e+00 8.348907999999999774e+00 2.865277999999999992e+00 1.096810800000000086e+01 3.299787999999999943e+00 6.100547999999999860e+00 4.355497999999999870e+00 1.105720799999999926e+01 5.148799999999999905e-02 1.702747999999999928e+00 1.351528000000000063e+00 3.493867999999999974e+00 1.627267999999999937e+00 9.171307999999999794e+00 4.212398000000000309e+00 4.925538000000000416e+00 3.077487999999999779e+00 4.774338000000000193e+00 2.249438000000000049e+00 1.147270800000000079e+01 9.944107999999999947e+00 8.484979999999999745e-01 3.169547999999999810e+00 1.013440800000000053e+01 1.039640799999999921e+01 1.012600800000000056e+01 1.744437999999999933e+00 2.593380000000000130e-01 7.036938000000000137e+00 4.791188000000000002e+00 1.118150799999999911e+01 1.041598000000000024e+00 8.909107999999999805e+00 4.876117999999999952e+00 1.082750799999999991e+01 6.394980000000000109e-01 3.900187999999999988e+00 2.332158000000000175e+00 9.057408000000000570e+00 5.236180000000000279e-01 8.718807999999999225e+00 5.797717999999999705e+00 7.294348000000000276e+00 6.297308000000000128e+00 7.570458000000000354e+00 1.687548000000000048e+00 8.233107999999999649e+00 8.877708000000000155e+00 6.785980000000000345e-01 5.234117999999999604e+00 4.006878000000000384e+00 2.617258000000000084e+00 4.915248000000000062e+00 6.479880000000000084e-01 8.251507999999999399e+00 8.257407999999999859e+00 9.583007999999999527e+00 3.407388000000000083e+00 1.123750800000000005e+01 8.367207999999999757e+00 1.033450799999999958e+01 4.815718000000000387e+00 4.837407999999999930e+00 7.536247999999999614e+00 4.228487999999999580e+00 6.700948000000000349e+00 6.491468000000000238e+00 5.191288000000000125e+00 1.077820799999999934e+01 1.118680799999999920e+01 8.852107999999999421e+00 6.942479999999999762e-01 6.358708000000000027e+00 2.514137999999999984e+00 1.085480800000000023e+01 4.654238000000000319e+00 1.096490799999999943e+01 4.418917999999999680e+00 3.271117999999999970e+00 2.766217999999999844e+00 5.055799999999999877e-02 8.891107999999999123e+00 9.657908000000000825e+00 2.285098000000000074e+00 3.950318000000000218e+00 6.819799999999999474e-02 7.985508000000000273e+00 2.301088000000000022e+00 7.574379999999999447e-01 4.800968000000000124e+00 1.182340800000000058e+01 2.697957999999999856e+00 8.405799999999999383e-02 2.639618000000000020e+00 1.069760800000000067e+01 5.863558000000000270e+00 1.373947999999999947e+00 5.882328000000000223e+00 8.984507999999999939e+00 3.522177999999999809e+00 1.574697999999999931e+00 6.105027999999999899e+00 9.815208000000000155e+00 1.545188000000000006e+00 1.101660799999999973e+01 8.387280000000000291e-01 4.267147999999999719e+00 1.033520799999999973e+01 3.196178000000000186e+00 7.435387999999999664e+00 1.083740799999999993e+01 1.162400799999999990e+01 4.313679999999999737e-01 6.761998000000000175e+00 4.293528000000000233e+00 9.966207999999999956e+00 8.819708000000000325e+00 8.636808000000000263e+00 8.913308000000000675e+00 7.682118000000000002e+00 1.064550799999999953e+01 1.047240799999999972e+01 1.018370799999999932e+01 3.012378000000000000e+00 5.137380000000000280e-01 7.884567999999999799e+00 8.149207999999999785e+00 9.441907999999999745e+00 1.007960800000000035e+01 1.068760800000000089e+01 3.107178000000000218e+00 1.172180799999999934e+01 6.696538000000000324e+00 7.658348000000000155e+00 2.114338000000000051e+00 5.062578000000000245e+00 5.550037999999999805e+00 8.540280000000000094e-01 6.106297999999999782e+00 3.368657999999999930e+00 1.370738000000000012e+00 5.225028000000000006e+00 6.447917999999999594e+00 7.059688000000000407e+00 1.061710799999999999e+01 1.178730799999999945e+01 1.073398000000000074e+00 9.307308000000000803e+00 2.971728000000000147e+00 5.549768000000000256e+00 8.447708000000000439e+00 4.228617999999999988e+00 1.162587999999999955e+00 1.043600799999999929e+01 9.931108000000000047e+00 2.835068000000000144e+00 6.165987999999999580e+00 6.776597999999999900e+00 5.420518000000000391e+00 1.901127999999999929e+00 5.518157999999999674e+00 8.681307999999999581e+00 7.300188000000000343e+00 7.288937999999999917e+00 3.928268000000000093e+00 6.450347999999999971e+00 6.661698000000000341e+00 6.681277999999999828e+00 6.717127999999999766e+00 7.299038000000000359e+00 5.481347999999999665e+00 4.653088000000000335e+00 3.024518000000000040e+00 5.008227999999999902e+00 1.144940800000000003e+01 2.031798000000000215e+00 9.600208000000000297e+00 2.708968000000000043e+00 7.490827999999999598e+00 3.659418000000000060e+00 3.279478000000000115e+00 1.038360800000000062e+01 8.663107999999999365e+00 4.760548000000000002e+00 8.984807999999999240e+00 4.899937999999999683e+00 9.663107999999999365e+00 7.776180000000000314e-01 1.175220799999999954e+01 7.441988000000000270e+00 9.710107999999999961e+00 6.465378000000000291e+00 4.610628000000000171e+00 7.884757999999999711e+00 9.111408000000000840e+00 7.662627999999999773e+00 2.271297999999999817e+00 7.309408000000000349e+00 2.737058000000000213e+00 1.366057999999999995e+00 1.374597999999999987e+00 1.150277999999999912e+00 5.412198000000000064e+00 6.712218000000000018e+00 8.571908000000000527e+00 7.013188000000000422e+00 9.065307999999999922e+00 5.364717999999999876e+00 8.803008000000000166e+00 1.175440799999999975e+01 4.123447999999999780e+00 5.122098000000000262e+00 4.812307999999999808e+00 9.877207999999999544e+00 9.440708000000000766e+00 6.394379999999999509e-01 1.029400799999999983e+01 7.840828000000000131e+00 1.087868000000000057e+00 4.789579999999999949e-01 9.398180000000000422e-01 1.013930799999999977e+01 1.082260800000000067e+01 7.145737999999999701e+00 8.737979999999999636e-01 7.913958000000000048e+00 9.275608000000000075e+00 1.097870799999999925e+01 9.136680000000000357e-01 6.141898000000000302e+00 2.709217999999999904e+00 1.023810800000000043e+01 8.872807999999999140e+00 5.615998000000000268e+00 2.899808000000000163e+00 1.052140799999999921e+01 6.518678000000000416e+00 8.791508000000000322e+00 6.848518000000000328e+00 3.209318000000000115e+00 1.064267999999999992e+00 1.149390799999999935e+01 4.679928000000000310e+00 5.524618000000000251e+00 9.124508000000000507e+00 1.002900799999999926e+01 5.831228000000000300e+00 1.687278000000000056e+00 1.870457999999999954e+00 3.428627999999999787e+00 1.146670800000000057e+01 2.341028000000000109e+00 2.286998000000000086e+00 4.033328000000000024e+00 1.027770800000000051e+01 8.148108000000000573e+00 4.813997999999999777e+00 3.630698000000000203e+00 1.176820799999999956e+01 3.546008000000000049e+00 3.679107999999999823e+00 4.219947999999999588e+00 1.040290800000000004e+01 4.678787999999999947e+00 7.339368000000000336e+00 1.851987999999999968e+00 8.192180000000000017e-01 1.059510799999999975e+01 5.954679999999999973e-01 1.117610799999999927e+01 3.178488000000000202e+00 5.459298000000000428e+00 7.132628000000000412e+00 4.704507999999999690e+00 1.134660799999999981e+01 4.453368000000000215e+00 9.531107999999999691e+00 4.936957999999999736e+00 1.016020800000000079e+01 5.456678000000000139e+00 1.068240800000000057e+01 6.121847999999999956e+00 1.100270800000000015e+01 7.780780000000000474e-01 5.108448000000000100e+00 7.750817999999999763e+00