-7.781443804916580848e+04
-7.781842796213318070e+04
-7.781498579373481334e+04
-7.781711825971196231e+04
-7.781757417593464197e+04
-7.781720923653917271e+04
-7.781936403350286128e+04
-7.781662804358372523e+04
-7.782105518006590137e+04
-7.781918577416038897e+04
-7.782199794702134386e+04
-7.781768708961523953e+04
-7.781505542996698932e+04
-7.781703621243115049e+04
-7.782002362644113600e+04
-7.781993454427931283e+04
-7.781776061437027238e+04
-7.781364611181998043e+04
-7.781707266739520128e+04
-7.781693623243285401e+04
-7.781923271887387091e+04
-7.781791464228296536e+04
-7.781456805742406868e+04
-7.781474236986611504e+04
-7.781995618700924388e+04
-7.782132496245441143e+04
-7.781764189192176855e+04
-7.781823586044684635e+04
-7.781524585938749078e+04
-7.781942665726238920e+04
-7.782321352369413944e+04
-7.781299534392010537e+04
-7.781643446087930351e+04
-7.781902351835934678e+04
-7.781241374424757669e+04
-7.781992265340064478e+04
