2.058975577199324836e-01 -8.364107807429275177e-01 3.576096260573612129e-02 -1.567054081997173887e+00 -1.533638479889033013e+00 1.537463253267921992e+00 1.557420157655484139e-01 5.109373757548961725e-01 5.683984508356417775e-01 -1.837179344657061897e+00 -1.561607456610081268e+00 1.043381002790416234e+00 -1.865212084741780796e-01 3.395637199634217840e+00 3.978998443664121254e-01 -3.322194660202504868e-01 2.028441153531882202e-01 5.645644214846069486e-01 2.231090379249335565e-01 8.828191966403116375e-02 2.610019080261706481e+00 4.706394441357237279e-01 4.490827992289731507e-01 3.279560624057882845e-01 -5.868867409760800680e-01 -1.283757570973899753e+00 -2.535921937911019608e+00 1.435161621127145404e+00 7.347987185270082877e-01 -6.324194390643422814e-02 5.703355201174750144e-01 -2.115143901503715729e-01 -1.058416815320493809e+00 -1.913650129642455733e+00 -5.183601511951037022e-01 4.311287843696139377e-01 -1.479124403495355455e+00 -1.414693067168193708e-01 1.060046894859493216e+00 1.341808971389273797e+00 -2.202803614151283451e+00 9.388646222034341404e-01 6.119863663319495828e-01 9.747716234808029290e-01 1.519705156485647635e+00 -6.232246591789004642e-01 4.680693692032569797e-01 1.796116252673841396e-01 -1.898754699356588194e-01 3.011846542141960459e+00 3.520195331020098406e-01 8.776250536045279160e-01 -1.129556160349942218e+00 6.479077657882116592e-02 8.791219499887636957e-01 1.213729971043289613e+00 8.726571676656400545e-01 -4.997474196513728151e-01 -4.339533985360885526e-01 -2.146099986124463607e-02 -5.379581295516810968e-01 -1.942946824145742879e-01 4.157731265798335629e-01 1.296112236905762050e+00 -6.929432124839780549e-01 -9.743499625274971709e-01 5.452389800856541902e-01 -6.728083877429478221e-01 -6.176458790783938974e-02 -4.433276414370227458e-01 4.657697743457157036e-01 -4.568896975132289984e-01 1.056008719900577431e-01 2.193693166456502031e+00 -7.443693937257019888e-01 1.145181783993973301e+00 1.463950265603766454e-01 -6.250619696498296296e-01 -8.541724770699251623e-01 -4.329506682203001500e-01 6.222517536622483858e-01 -3.247601809121347105e-01 -6.961972009138799322e-01 -1.558754046085820022e+00 -3.503529438951020758e-01 -1.697804458748553014e+00 1.982855490714119595e+00 6.633220447349151838e-01 1.504764474780401207e+00 6.865802458544574272e-01 3.355752701437555441e-01 -1.850642670363713105e+00 1.371090753492992809e+00 1.226267185314692532e-01 -2.980360296005531318e+00 -1.029392657774831077e-01 -1.824845761772865005e-01 -1.547606770298302292e+00 1.290910380559856740e+00 7.678841909619512629e-01 -1.373845947868374218e+00 -2.305564445354623349e+00 -3.385294679202704438e-01 1.130426221731641423e+00 -1.965330335897512493e+00 6.013887924457533840e-01 -5.170128930272240714e-02 5.517680399931232937e-01 -8.351658524893257329e-01 -2.991926147422306337e-01 -6.712163605338807848e-01 3.813878585452914916e+00 -2.895571991605841777e+00 -1.272188634233075932e+00 -8.426657610307477508e-01 1.223424059203926717e+00 1.686129592548728153e-03 1.388133055095996715e+00 -2.463980922849615673e-01 -5.860187364770796936e-01 5.293526465595179697e-01 1.027618596446897792e+00 1.728333740209247793e+00 1.224366111480092778e+00 -7.491526744423498974e-02 6.659260582319163901e-02 -4.102982190556290765e-01 -3.886356446898772687e-01 -1.549213195686262312e-01 -9.181441001138483937e-01 -1.649533021346501593e+00 2.360097033692591939e+00 4.511000869360694276e-02 -1.296425911517367524e+00 -7.654478134049228499e-01 -5.264498708504793401e-01 1.596511213350987057e-01 -9.373445858888338478e-01 6.992017923165216864e-01 4.278866230152316152e-01 -5.437708800592050418e-01 -2.016727720781450017e+00 6.603467639107349907e-01 -1.143587699902207211e+00 2.050794326263841172e-01 -9.040307994742959874e-01 8.169429002170652820e-01 -1.602987822749630586e+00 1.050241220812432763e+00 -2.400695270185825958e+00 2.100015529252180213e-01 2.654869921735232841e-01 2.749177993486814561e-02 2.229002643309796472e+00 -1.378630771247046360e-01 -1.042618413529741994e-01 1.210028096405668940e-01 9.475230699250979383e-01 2.558284880835798969e+00 -2.795941221649785868e-01 1.671178112209311450e+00 9.699374349173534027e-01 2.010325159159972730e-01 -1.032219328824004689e+00 -1.166574906726149274e+00 1.463373824227356845e+00 -2.910766698324421253e-01 2.938550041381880473e-01 -2.805418308685672102e-01 -5.379766414959724630e-01 -5.338870444695803519e-01 1.454070029558865107e+00 1.938058642411443211e+00 -3.320220052811414524e-01 2.960856934253110473e-01 -4.042828656022485201e-01 -6.342037848057707761e-02 1.045817380347444425e+00 2.011214760927313161e-01 9.208015925610251173e-01 2.549371379659452597e+00 3.298226834551789555e-01 -2.936179484071221868e-01 -3.198833120326798896e-01 5.126163062579981028e-02 -1.123772720420879861e-01 -7.417612664633028707e-01 7.992279979714709270e-01 -1.673716305459942988e-01 2.198073298164135991e+00 3.019138705530778344e-01 1.252459529604434074e+00 6.546867369436158990e-01 -7.107815276915155356e-02 3.330473613066193828e-01 -2.749229415554290540e-02 1.643312493843890554e+00 -4.434232864825287113e-01 -1.025720607936346784e+00 -3.886243318350324216e-01 -1.059110499010749384e+00 9.072601053118094228e-02 2.517009415713901799e+00 -7.051158442969739371e-01 2.596120209643530408e-01 -2.216203690714938779e-01 1.025882587448897043e+00 -4.081302646908271936e-01 -6.659373710867612095e-01 3.004313723477353704e-01 -7.028846407891761183e-01 2.535359894713503870e+00 -1.958340020044780916e+00 -2.111019851692114424e-01 -4.112556979520383127e-01 7.193139913478622249e-01 -3.014389363378664921e+00 8.683161167292887672e-01 -9.193674310991103438e-01 -2.398356080336328522e-01 -1.073671685858020641e+00 -1.677932914993001678e-01 8.635683172391993567e-01 5.382332376126794937e-01 -2.246763825416119298e-01 -5.723090990672163869e-01 -9.017024082589680800e-01 5.546096234418650406e-01 1.814924902294657416e+00 -6.638295805409065720e-01 7.541087333057182596e-01 1.510306745212999679e+00 -6.308526086683386991e-01 -9.257720496032867397e-02 -9.450645808790545388e-01 1.826786944820096181e+00 -1.041348288463077032e-01 1.476057077170392695e+00 -5.169563287530001133e-02 9.307034258742663546e-01 1.228335380868590399e+00 -7.914139005977683938e-01 1.011511662251288302e+00 -4.612384617597019010e-01 3.432834380584567913e-01 1.507000820494946436e-01 -1.046601566876458334e+00 1.444310635372533236e+00 5.059345228101242986e-01 -5.711675291692419609e-01 4.739196578200386423e-01 -2.746159518125954047e-01 8.588683402718633175e-01 8.660586879670778560e-01 -3.896656287014280684e-01 1.053623250190350635e+00 8.275281328070668296e-01 -7.872307154085693426e-02 2.349512829543940029e+00 1.007868922991265404e+00 2.202415377541836694e+00 -5.109692574367314943e-01 -1.223985588180767969e+00 2.714016612187852395e+00 -1.427671482778543721e+00 2.881944629503940258e-01 4.012458782970966809e-01 6.425891813491353410e-01 -1.150554361603899789e+00 5.325012197510934353e-01 1.318733832829947383e+00 -1.050977584818693744e+00 4.356888933134145936e-01 -9.645843976930678076e-01 -7.089406176758630829e-02 -9.747865358803711189e-01 1.476355325161755383e+00 -8.483263022185416613e-01 -8.768418955168634232e-01 -3.863201089914182207e-01 3.694639552726786680e-01 2.663753083891768014e+00 1.033288907827512482e+00 4.237934264441161059e-01 1.517000355736392914e+00 -1.025741690984011967e-01 2.284731308937264505e+00 8.556848000744039506e-01 -8.652462193009519131e-01 -1.033696684822599660e-01 1.015211994226884684e+00 9.599764662265143356e-01 8.922428047260230199e-01 -5.962815527040048469e-01 -1.083396113038468667e-01 -3.111441316650783162e-01 -9.734572754361079383e-01 -8.865102726437622538e-01 -4.673139790320297582e-01 -3.146017514821864980e-01 -4.937680616452256310e-01 -1.155990702577497142e+00 7.212454042022731215e-01 -1.894250126245662080e-01 4.221900863802042214e-01 4.463034364818777022e-01 -1.514282185249594403e-01 1.138462976657516501e+00 9.588462091833848122e-01 -9.969371056664732000e-01 -7.410742676418191621e-01 4.745639763255168897e-02 -1.166750770196918197e+00 -1.662326317513936669e+00 -1.336829772595541144e+00 -5.607962123799418164e-01 -1.002890752638882166e+00 1.891717589422453161e+00 5.947594595067055012e-01 1.270392461416127994e-01 -1.975822494545382391e+00 -1.418873167033344318e+00 1.057862485433099131e+00 -1.154706179331938420e+00 -4.644955355136523578e-03 4.249463091969352679e-01 -2.282295959821586173e+00 3.787507806589031079e-01 -2.694126556488009694e+00 2.567699232949364752e-01 -2.665195472884479000e-01 -7.006230982615673231e-01 3.599837829127431887e-01 5.721080387833838987e-01 5.916545950724849678e-01 4.090692316429448416e-01 2.159464581461560950e-01 2.454976918834511079e-01 -1.449719208429693262e+00 1.164792617867419722e+00 3.396679524941963457e-01 -1.315425337008520490e+00 -3.422976770249356870e-01 -7.679027029062427401e-01 8.533209276325173231e-01 7.311035287581594266e-01 -1.560572330391782891e-01 6.053498343034549034e-01 -1.254379629604000235e-01 -2.097403288224383017e-02 -1.276329139106269883e+00 4.670460700604781024e-02 -5.293485327941199747e-01 -2.500238622627172780e-01 2.382528367967115257e-01 -1.661090645232480734e+00 -3.924892144265531013e-01 -1.476240139730608525e-01 7.606059115313519303e-01 3.501698813348864125e-01 9.226373603699298265e-01 -9.635343590752013521e-01 4.389187133716026534e-01 1.305600636796493408e+00 1.281823072795440499e+00 -1.594594198675469698e+00 4.881404305806166244e-01 5.527615143367659023e-02 8.251133525183784734e-01 -8.811181546481947624e-01 -3.207654061781687993e+00 4.929802755714883800e-01 -3.867253148831317211e-01 7.594951948738634107e-01 3.795642777663785772e-01 8.254594230324943105e-01 2.246033632057955476e-01 -2.380524964218237560e+00 1.306146224932417110e-01 -5.749964163135291573e-01 -1.064625515747585238e+00 -1.350156315602705659e+00 1.235955102827232394e-01 -1.256698250626507862e+00 -1.358521657539754512e+00 -3.580297443486428199e-01 6.063278820268546560e-02 6.538747824981646639e-01 1.814660078647154062e+00 3.470279930120828693e-01 4.284368391372283535e-01 -4.384656849571361148e-02 -2.426432529178402520e-01 2.170114091635907960e-01 -1.860318760800733662e+00 1.399354378660680576e+00 5.372510761238816768e-01 3.292009906593901802e-01 3.053771467976083565e-01 1.061998876540894532e+00 -4.157988376135716146e-01 -4.553485781509634678e-01 3.020244279981519342e-01 -1.301336718961356720e+00 -5.255731246000080459e-01 -2.518642066356275411e+00 -1.652916079165769048e-01 -1.621832982038354354e+00 2.295541255962138205e+00 -1.573705526425236645e+00 -5.600948153795647366e-01 -2.702635880213992148e-01 5.360298020213188908e-01 -4.715748115431181442e-01 -6.786926149242639150e-01 4.054331772516938659e-01 -1.800492270616076834e-02 -9.367542605542055201e-01 4.389315688884716238e-01 7.666953127618986175e-01 -1.122164238150220372e+00 2.724058313524629349e-01 -3.623039465972749951e-01 3.104391351199778937e-01 -6.084413290001317032e-01 9.141038682722335551e-01 1.193461963147495863e+00 4.007964494273535960e-01 -1.756027608869297874e+00 5.772224776145793435e-01 -2.531518666273022133e-01 1.284019823518029124e+00 7.119349246650094054e-01 -1.213164842521724796e-01 -2.094821900437071338e-01 -1.659967587278797785e+00 -8.935982904246990710e-01 6.512008349893957382e-01 4.769329909741512052e-01 -3.401050400677451124e-01 -8.713793292888534214e-01 1.188259592580915625e+00 5.528782424299372167e-01 9.290959720449564196e-01 -1.359183459548174877e+00 1.150393924753373653e+00 2.510250499164813909e-01 6.478527441760121297e-01 1.332818851332387700e-01 -4.887986330443134242e-01 -1.201144420028458892e+00 -1.384330907426797097e+00 -5.524406406357135202e-01 -1.128488124008458771e-01 1.049232319848547146e+00 -2.168108631004330919e-02 2.525092450500505237e+00 -4.069748108346341042e-02 8.334324145946985229e-01 -1.547228303881676426e-01 -8.796166302778860580e-01 2.411283588099876612e-02 3.254816325188275017e-01 -1.768790051796247376e+00 -7.087693821911668079e-01 4.744678170593361610e-01 -1.225233601758418667e-02 -5.807160928789210086e-01 1.689342957545323598e+00 1.045896056110683148e+00 6.397470836797187754e-01 -1.001237533169518468e+00 9.519217135770227101e-01 -9.158892424550115763e-01 -9.283791484243364422e-02 1.022394114391303122e+00 7.248176952298533982e-01 -4.766511980443810526e-01 -4.452050611205833897e-01 -2.181010427734141333e-01 -2.243280494565273120e+00 -1.124559992273942211e+00 -1.901261525146058950e+00 -6.828958547197786499e-01 4.049894048093732324e-01 -4.902549059952430732e-01 5.639519846609638565e-01 8.411981752249733102e-01 1.485729568062689410e+00 -9.532833699237958092e-01 3.650272592908212488e-01 6.541910282131440102e-01 5.308402869716080663e-02 9.211476630751407324e-01 6.306356075435886055e-01 1.476974446854170342e+00 -4.424354685663085124e-02 -6.331650590427491121e-01 2.384879899112807511e+00 -2.464855097996713207e-01 -2.074399626338848446e+00 -5.659677297060358159e-01 1.349521767290047913e+00 -1.066294676057866875e+00 -1.121999173313621423e+00 -3.982855098724845666e-01 -1.816596119487637884e+00 1.185510054632956445e+00 -3.197213325201295198e-01 1.052121211599367223e+00 -5.283324327407875609e-01 3.197095054446099649e-01 3.063937610716153115e-01 4.509242234653004222e-01 4.756299557843012282e-01 3.822263981996279480e-01 3.152830938762478108e-01 2.426177989944394042e+00 -1.142987604374758437e+00 3.645824584071510194e-02 -1.956439974651530689e-01 1.008592431480657275e-02 -2.295755685983514205e+00 1.732296324728973547e-01 -1.104845800044868431e+00 -7.785995213826679695e-01 8.856556378823058351e-01 7.060548112490915296e-01 1.311972859398159885e+00 -9.694818353995132698e-01 -2.254665340304531806e+00 1.993796564011057537e+00 2.915857483004576922e-01 6.289139967244812279e-01 -1.996530675338773264e+00 1.185369158168071646e+00 -6.067803962206462596e-05 -4.178690900501685346e-01 6.908709031646820264e-02 1.557697836819856296e-01 2.842620631842769363e+00 5.382435220261747588e-01 4.406264402324913121e-01 6.513581865158732387e-02 1.618843303035280901e+00 -3.452127940301685238e-01 5.569729816630769603e-01 -5.448918811301889376e-01 5.181169248159407381e-01 -1.395015384607028341e+00 -2.910756413910925988e-01 -3.302577141460287247e-01 -7.663559271165547582e-01 3.285285957050696926e+00 -5.102097535001060696e-02 3.351875477549840499e-01 1.486403711367304092e+00 -5.582667608807813098e-01 -2.437169456867459283e-01 4.429342626208288558e-01 1.110069767879788394e+00 -1.694563325835520162e+00 4.570408783916093398e-01 6.676934346910777807e-01 7.336561201876843352e-01 -1.554631538936243063e+00 2.594911791057836759e-01 -9.131232494454599724e-01 -5.445139289342380007e-01 2.259618313843851478e+00 6.028584351342268777e-01 -3.900304168481051104e+00 -2.197306080917389437e-01 -4.819528132011903221e-01 7.029998262203230874e-01 1.344172843831160360e-03 -7.675926278393603308e-01 -2.297272636974065918e+00 -7.213405350271042682e-01 -2.660562344604862073e+00 -1.165633882891332407e+00 -1.355761835178299846e+00 -7.646399727248698319e-01 -2.178824989866397777e-01 2.873033185210293050e-01 -3.033603733111868705e-01 9.847613885294287384e-01 -1.449991231166642969e+00 -1.200545867163034519e-01 4.950145325608517610e-01 -3.212002311807486410e-01 -2.147833424019090387e+00 8.615309749257873406e-01 -1.428443328011363311e+00 4.078870383116641740e-01 -1.444348173481790898e-01 -2.125556870167671086e-01 -9.447843306113087314e-01 1.033693085277876289e+00 5.798969393440230741e-02 1.139789665998405699e+00 -2.171349763917363784e+00 5.901031912967242832e-01 6.533693035748723288e-01 -6.646770162129165271e-01 9.600145185564469275e-01 -1.120287332687334381e+00 -2.751692532586406115e-01 -1.119894982312489962e+00 -8.240751409760315171e-01 1.808952743377956862e+00 1.742037206971013941e+00 7.737905296322820092e-01 1.254979725131448509e+00 1.703931398088357474e+00 -3.494119200602853748e-01 -7.610640821525661570e-01 -1.959026504645589722e-02 -1.386478292964608450e+00 -1.051058831685306227e+00 -3.631678373308773189e-01 5.211770520514568128e-01 -1.260642837422616680e-01 -9.381190022250273097e-01 -2.061500400712411862e-01 -1.089705600717813805e-01 -2.247496589877656881e+00 6.546322295520908829e-01 1.822002121441424205e-01 -3.238314983735122166e-01 -7.263757838743860606e-01 -4.327912598111235964e-01 1.717569044603753647e-01 -2.617743189017325556e-02 4.701524771567229255e-01 2.767011166487604590e-01 1.439608601522498033e+00 -9.251894375787799163e-01 3.967587886891124627e-01 -6.394879164596382060e-01 -1.269070914281986262e+00 -1.134679340932608360e+00 8.016453493635330441e-01 6.542295947637513098e-01 -1.694823007276275550e+00 4.424133570772936785e-01 6.862444597538370772e-01 1.259159310775924467e+00 -9.734403061538408064e-01 5.311457340524174953e-01 -6.177975741774490714e-01 -1.091301741692279004e+00 2.851065677984406799e-01 4.457064262784775632e-01 -1.796558482454138073e-01 1.113716620905209398e+00 9.095494157558553505e-01 2.182691929340617176e-01 -1.599817652289714731e+00 -1.590707204594934199e+00 -1.198015387222524319e+00 3.018115406387999466e-01 -1.606518976123229914e+00 -1.227062170477876801e+00 3.951477353150791016e-02 4.885060414803731876e-01 4.267784774611167453e-01 -5.979147175670529446e-01 6.311421149082304671e-01 -6.939829666883493564e-01 -1.081065150719766832e+00 -4.271008938241933617e-01 1.833731495032774050e-01 8.822885209039560417e-01 -5.280192723498569052e-01 -1.150058652873428011e+00 -7.530113863857734735e-01 -1.651559050805069040e+00 -3.567292802621664927e-01 -1.220945001330892982e-01 1.027076607855697432e+00 -7.447092935917205558e-01 -2.015272476271869895e+00 -5.952407700582839079e-01 6.833997909810466398e-01 -3.415109193925478515e-01 1.265803041893865943e+00 -2.083971844199566936e-01 -2.735653989740540609e-03 4.376732708973259944e-01 6.515340499866423274e-01 -8.029602116289026315e-01 -3.225963403127308782e-01 9.076396001697847327e-01 -6.954973465755271977e-01 2.337400361549891448e-01 3.119393739385996955e+00 -1.139660082388365359e+00 -2.092122241894564250e-01 1.360247382124259996e-01 1.121108028884256536e+00 1.040651005228097725e+00 -1.744628364951146038e+00 2.095135575048677090e+00 2.287936960623738525e+00 1.126914094523008503e+00 2.648401025646710538e-01 1.188203028306692000e+00 -1.261659451696623524e+00 -6.021040734043491272e-01 1.404809745799243947e-01 -3.583151368231364264e-01 1.192638695847199726e+00 9.166909124869675185e-02 -6.419201802512684019e-01 1.877588347941983038e+00 -1.657641767166843361e-01 1.270934964228003450e+00 3.879023660076648117e-01 1.776835548473593152e+00 -1.221927677040365312e+00 1.609146643771270258e+00 -1.009940718089886502e+00 -6.222964908609528445e-01 1.496718463882380501e+00 4.078921805184118066e-01 4.974272559668410643e-01 3.467441431996135526e-01 -3.244393072110823839e-01 6.229145841120182769e-01 -1.900112241937963187e-01 5.458066797105928236e-01 -3.448764937088733551e-01 -1.263532757614786173e-01 -2.411741244500416048e-01 3.126271440910955990e-01 6.804630767074737463e-02 1.039884302202025879e+00 1.645835260474278749e-01 -8.540598627421520650e-01 -1.230504877895416627e+00 -2.142407367458988965e+00 -2.095875538599661247e+00 -1.565417317589402391e+00 -9.937119135943581760e-01 -1.840267239809014965e+00 -2.619815498336621196e-01 1.575613285128608376e-01 4.692654464927563107e-01 3.349942007812730521e-02 -8.137315921031686994e-01 3.237199124870885902e-01 -1.021344589994111374e+00 1.570625344583404803e-01 1.725614541281099701e+00 7.692792716525838348e-02 -6.552307824175153117e-01 1.614259539940440913e+00 -9.754210841930289755e-01 -9.036867858428795364e-01 -4.729416100966389314e-01 -5.984618483650010479e-01 -1.422545216871828611e-01 -1.333447743217623049e+00 -7.933561120863492633e-01 -4.641407232480657674e-01 -5.378012922458782485e-01 2.058492209765047098e-01 1.751677301960800626e-01 -1.065996942287178895e+00 1.534383071426090039e-01 -5.129402652830991061e-01 1.816073157061403806e-02 2.171219666086648958e-01 -1.336660079772869214e-01 1.123777862627627425e-02 3.022877089836307207e-01 -3.264319123257899968e-01 6.194348528058953862e-01 1.874294250299449294e+00 1.057215081603572138e+00 5.232750724044910040e-01 -8.740039116128449637e-01 1.196717494239422086e+00 -9.698253348102550686e-02 -1.052763987442821222e-02 -1.086203757922676205e+00 6.787574067292839741e-01 1.546808185590395013e+00 9.014715231759993230e-01 -4.341014940904203701e-01 2.064052477921261897e+00 6.375523898398293143e-01 1.519149283936228612e+00 -2.445978057026154118e-01