1.011159800000000075e+01 9.422207999999999473e+00 3.720718000000000192e+00 2.433168000000000220e+00 1.980079999999999896e-01 1.280769800000000025e+01 2.445867999999999931e+00 1.262649799999999978e+01 4.934948000000000334e+00 1.270129799999999953e+01 8.377337999999999951e+00 9.466000000000000456e-03 5.301487999999999978e+00 3.876888000000000112e+00 1.082969800000000049e+01 1.274078000000000044e+00 2.579778000000000127e+00 6.254658000000000051e+00 8.610227999999999327e+00 1.184359800000000007e+01 5.580948000000000242e+00 6.915568000000000382e+00 3.961107999999999851e+00 3.751937999999999995e+00 1.282648000000000010e+00 5.677857999999999628e+00 1.007739800000000052e+01 3.891858000000000040e+00 2.104197999999999791e+00 4.954697999999999602e+00 1.437287999999999899e+00 1.069809799999999989e+01 7.866118000000000166e+00 2.289928000000000186e+00 6.262667999999999680e+00 4.861448000000000214e+00 7.737537999999999805e+00 1.717708000000000013e+00 1.206899800000000056e+01 3.690738000000000074e+00 5.631827999999999612e+00 1.090159799999999990e+01 2.827767999999999837e+00 1.172979800000000061e+01 2.708457999999999810e+00 5.227178000000000324e+00 1.350779799999999931e+01 1.446337999999999901e+00 9.261108000000000118e+00 6.036728000000000094e+00 1.207529800000000009e+01 5.587678000000000367e+00 1.351908000000000110e+00 6.430767999999999596e+00 7.831127999999999645e+00 8.564358000000000359e+00 5.973880000000000301e-01 3.314738000000000184e+00 1.202309799999999917e+01 7.423858000000000068e+00 7.494118000000000279e+00 7.677147999999999861e+00 7.466688000000000436e+00 2.883068000000000186e+00 1.962277999999999967e+00 8.036267999999999745e+00 1.210769799999999918e+01 1.142419800000000052e+01 1.032439800000000041e+01 6.338178000000000090e+00 1.086739799999999967e+01 1.307619799999999977e+01 4.390319999999999778e-01 1.311879799999999996e+01 5.561340000000000172e-01 2.081798000000000037e+00 9.251668000000000447e+00 3.045008000000000159e+00 1.047859799999999986e+01 1.146959799999999952e+01 7.005067999999999628e+00 5.748928000000000260e+00 1.073428000000000049e+00 1.334489800000000059e+01 2.135187999999999864e+00 7.857528000000000290e+00 9.321080000000000476e-01 1.015059800000000045e+01 7.807337999999999667e+00 3.788799999999999807e-02 8.797679999999999945e-01 3.475827999999999918e+00 1.937397999999999954e+00 3.820968000000000142e+00 7.203877999999999560e+00 1.284529799999999966e+01 1.324478000000000044e+00 9.722098000000000795e+00 1.126629800000000081e+01 7.058658000000000321e+00 5.402187999999999768e+00 1.165259799999999935e+01 1.126849799999999924e+01 7.804179999999999451e-01 1.218209799999999987e+01 7.134007999999999683e+00 1.120769800000000060e+01 8.792998000000000758e+00 1.050539799999999957e+01 4.649467999999999712e+00 1.815037999999999929e+00 9.462927999999999784e+00 1.152699800000000074e+01 2.635247999999999813e+00 8.366208000000000311e+00 1.292459799999999959e+01 9.454677999999999471e+00 9.723397999999999541e+00 4.403647999999999563e+00 1.040019799999999961e+01 7.063080000000000469e-01 6.470679999999999765e-01 4.819078000000000195e+00 1.000089799999999940e+01 1.040479799999999955e+01 1.101039800000000035e+01 1.287649799999999978e+01 1.095299799999999912e+01 6.998298000000000130e+00 1.036337999999999981e+00 2.317220000000000113e-01 8.405488000000000071e+00 1.334689799999999948e+01 1.474877999999999911e+00 1.424487999999999976e+00 9.690098000000000766e+00 1.211497999999999964e+00 4.664907999999999610e+00 3.549997999999999987e+00 9.202768000000000725e+00 1.034439799999999998e+01 1.056109799999999943e+01 3.115490000000000204e-01 9.754597999999999658e+00 4.788470000000000226e-01 1.096849800000000030e+01 2.708988000000000174e+00 4.803128000000000064e+00 2.946327999999999836e+00 8.190479999999999983e-01 1.030949799999999961e+01 4.228448000000000206e+00 7.102208000000000077e+00 4.320510000000000184e-01 6.215938000000000407e+00 6.578797999999999924e+00 1.332439800000000041e+01 4.161167999999999978e+00 7.132938000000000223e+00 7.277487999999999957e+00 7.268658000000000285e+00 9.999897999999999954e+00 6.489728000000000385e+00 9.326368000000000436e+00 2.613258000000000081e+00 8.759527999999999537e+00 9.822297999999999973e+00 6.742308000000000412e+00 4.155747999999999998e+00 6.340927999999999898e+00 6.548688000000000287e+00 1.162519799999999925e+01 4.815768000000000271e+00 1.357009799999999977e+01 4.599347999999999992e+00 1.757508000000000070e+00 9.843797999999999604e+00 2.395627999999999869e+00 1.163539800000000035e+01 1.231279800000000080e+01 3.943217999999999890e+00 1.110469800000000085e+01 4.567019999999999968e-01 2.103568000000000104e+00 2.570368000000000208e+00 1.270639800000000008e+01 4.575677999999999912e+00 5.186448000000000391e+00 1.867118000000000055e+00 1.098809800000000081e+01 1.241239799999999960e+01 1.330009800000000020e+01 1.109249800000000086e+01 4.857268000000000363e+00 4.859568000000000332e+00 1.101189800000000041e+01 3.155317999999999845e+00 1.195369799999999927e+01 8.858328000000000202e+00 1.236377999999999977e+00 5.471770000000000245e-01 2.793887999999999927e+00 9.177327999999999264e+00 5.404537999999999620e+00 1.317669800000000002e+01 4.768017999999999645e+00 3.418838000000000044e+00 4.410288000000000430e+00 7.933747999999999578e+00 8.328117999999999910e+00 1.234799800000000047e+01 8.240979999999999972e-01 7.971467999999999776e+00 8.705038000000000054e+00 1.154949799999999982e+01 1.279209799999999930e+01 9.557057999999999609e+00 8.133428000000000324e+00 9.929398000000000835e+00 7.514908000000000143e+00 1.301379799999999953e+01 1.679807999999999968e+00 1.302139799999999958e+01 9.192358000000000473e+00 1.002519799999999961e+01 1.209239799999999931e+01 2.593210000000000237e-01 4.369577999999999740e+00 6.806508000000000003e+00 1.300049800000000033e+01 4.590527999999999942e+00 6.137228000000000350e+00 8.515038000000000551e+00 1.281039799999999929e+01 5.286097999999999963e+00 1.098219800000000035e+01 1.024639799999999923e+01 9.709379999999999677e-01 6.614817999999999643e+00 2.767437999999999843e+00 4.562818000000000040e+00 4.350348000000000326e+00 4.184287999999999563e+00 3.877127999999999908e+00 1.337968000000000046e+00 2.570338000000000012e+00 6.096257999999999733e+00 6.936277999999999722e+00 2.348867999999999956e+00 1.292759799999999970e+01 1.091909799999999997e+01 1.374689799999999984e+01 1.193529799999999952e+01 1.208089799999999947e+01 3.164687999999999946e+00 1.721287999999999929e+00 4.613328000000000095e+00 1.366279800000000044e+01 8.293877999999999417e+00 5.499168000000000056e+00 2.527197999999999833e+00 7.303288000000000224e+00 1.538567999999999936e+00 3.870908000000000015e+00 4.903628000000000320e+00 9.366737999999999786e+00 6.435407999999999795e+00 7.802938000000000152e+00 3.022317999999999838e+00 9.701498000000000843e+00 1.283709799999999923e+01 6.808618000000000059e+00 9.726297999999999888e+00 6.648818000000000339e+00 5.628128000000000242e+00 6.588517999999999653e+00 1.362149800000000077e+01 6.095907999999999660e+00 1.283769799999999961e+01 5.991400000000000198e-02 1.320569799999999994e+01 1.059049800000000019e+01 1.067839799999999961e+01 6.322117999999999682e+00 8.537978000000000733e+00 3.552649999999999975e-01 1.745128000000000013e+00 1.121009800000000034e+01 6.046967999999999677e+00 1.067699799999999932e+01 4.595218000000000025e+00 1.793049999999999922e-01 3.483918000000000070e+00 9.319437999999999889e+00 1.082169799999999960e+01 2.267107999999999901e+00 1.633127999999999913e+00 1.040369800000000033e+01 1.916577999999999893e+00 6.865707999999999700e+00 5.788897999999999655e+00 1.272039799999999943e+01 7.381438000000000166e+00 1.069869800000000026e+01 7.342427999999999955e+00 4.536477999999999788e+00 1.187269799999999975e+01 9.173778000000000432e+00 5.440208000000000155e+00 1.159418000000000060e+00 8.505907999999999802e+00 7.108297999999999561e+00 5.935558000000000334e+00 1.337089800000000039e+01 1.027519799999999961e+01 7.003587999999999703e+00 3.253467999999999805e+00 7.349187999999999832e+00 1.336349799999999988e+01 7.464447999999999972e+00 1.302699800000000074e+01 5.886458000000000190e+00 1.201099800000000073e+01 4.863027999999999906e+00 3.160337999999999870e+00 1.198049800000000076e+01 3.983788000000000107e+00 7.370557999999999943e+00 1.174859799999999943e+01 1.313949799999999968e+01 4.850708000000000020e+00 6.557258000000000031e+00 1.799638000000000071e+00 7.919947999999999766e+00 2.081177999999999972e+00 1.073159799999999997e+01 6.974368000000000123e+00 7.161287999999999876e+00 8.685038000000000480e+00 6.004527999999999643e+00 8.107578000000000173e+00 3.038708000000000187e+00 8.557007999999999726e+00 4.183618000000000059e+00 9.733897999999999939e+00 9.619498000000000104e+00 1.248529800000000023e+01 1.320969799999999950e+01 1.310609799999999936e+01 5.460358000000000267e+00 6.821387999999999785e+00 8.100948000000000704e+00 5.512707999999999942e+00 1.258379799999999982e+01 9.837498000000000076e+00 5.644817999999999891e+00 1.095539800000000064e+01 1.012549800000000033e+01 5.546088000000000129e+00 7.575467999999999869e+00 5.300247999999999848e+00 8.712937999999999406e+00 7.528617999999999810e+00 4.248558000000000057e+00 1.023560000000000025e-01 2.310427999999999926e+00 4.410047999999999746e+00 4.802538000000000196e+00 1.018129799999999996e+01 1.178439799999999948e+01 2.053777999999999881e+00 1.232429800000000064e+01 9.659698000000000562e+00 1.227549800000000069e+01 6.331658000000000008e+00 3.593888000000000194e+00 6.306657999999999653e+00 5.320608000000000004e+00 1.539528000000000008e+00 1.486078000000000010e+00 5.448057999999999623e+00 1.184459799999999952e+01 5.993678000000000061e+00 9.224648000000000181e+00 8.139277999999999125e+00 4.511047999999999725e+00 3.444647999999999932e+00 2.650128000000000039e+00 8.912428000000000239e+00 1.777738000000000040e+00 2.362848000000000059e+00 8.827097999999999445e+00 1.099189800000000083e+01 1.144779800000000058e+01 8.149957999999999814e+00 5.840030000000000499e-01 1.009969800000000006e+01 1.160457999999999990e+00 1.116718000000000099e+00 4.797678000000000331e+00 8.213497999999999521e+00 1.273789799999999950e+01 1.199799800000000083e+01 4.370517999999999681e+00 3.933348000000000066e+00 2.519217999999999957e+00 6.178767999999999816e+00 1.041499800000000064e+01 9.218887999999999749e+00 1.025929799999999936e+01 3.120357999999999965e+00 6.720580000000000442e-01 7.248458000000000290e+00 7.427127999999999730e+00 1.286269799999999996e+01 1.125809800000000038e+01 2.570028000000000201e+00 1.060029800000000044e+01 4.018168000000000184e+00 1.300109800000000071e+01 4.854878000000000249e+00 4.564050000000000051e-01 9.985898000000000607e+00 5.240948000000000384e+00 1.098749800000000043e+01 7.003099999999999603e-02 1.035099800000000059e+01 6.018267999999999951e+00 4.673108000000000040e+00 1.181119799999999920e+01 5.032090000000000174e-01 9.195358000000000587e+00 3.933260000000000089e-01 1.136779800000000051e+01 7.250907999999999909e+00 2.277327999999999797e+00 2.874157999999999991e+00 7.157148000000000287e+00 4.133727999999999625e+00 6.036287999999999876e+00 1.220939800000000020e+01 4.063317999999999763e+00 1.042979799999999990e+01 1.052769799999999911e+01 2.650948000000000082e+00 3.788828000000000085e+00 1.297049799999999919e+01 4.988298000000000343e+00 2.550218000000000096e+00 1.084209800000000001e+01 1.079639799999999994e+01 1.141929799999999950e+01 1.062279799999999952e+01 1.083479799999999926e+01 3.985408000000000062e+00 5.837647999999999726e+00 6.368178000000000338e+00 9.767497999999999791e+00 1.220539800000000064e+01 3.727717999999999865e+00 1.131219800000000042e+01 1.796308000000000016e+00 5.684528000000000247e+00 2.365327999999999875e+00 6.343999999999999813e-03 4.335607999999999684e+00 1.329847999999999919e+00 5.979498000000000424e+00 9.176598000000000255e+00 8.610547999999999647e+00 5.899389999999999912e-01 6.171038000000000245e+00 1.043399800000000077e+01 9.326397999999999300e+00 8.021717999999999904e+00 8.943568000000000850e+00 7.459927999999999670e+00 1.222619800000000012e+01 2.196298000000000084e+00 1.737697999999999965e+00 6.198278000000000176e+00 1.274269800000000075e+01 1.898568000000000033e+00 6.875067999999999735e+00 1.185159799999999919e+01 7.544328000000000145e+00 7.283027999999999835e+00 6.362878000000000256e+00 2.122688000000000130e+00 7.445528000000000368e+00 6.848078000000000110e+00 6.370248000000000133e+00 1.303009800000000062e+01 3.588988000000000067e+00 8.329617999999999967e+00 3.981187999999999949e+00 3.513748000000000093e+00 5.088648000000000060e+00 1.056607999999999992e+00 7.099537999999999904e+00 1.481757999999999909e+00 7.022777999999999743e+00 7.784907999999999717e+00 1.354619800000000041e+01 4.601187999999999612e+00 1.229829800000000084e+01 7.875788000000000011e+00 2.858347999999999889e+00 1.291069800000000001e+01 1.204339799999999983e+01 1.047039799999999943e+01 4.354509999999999770e-01 1.111779800000000051e+01 9.531368000000000507e+00 5.610578000000000287e+00 1.899137999999999993e+00 3.303237999999999897e+00 1.543007999999999935e+00 3.818417999999999868e+00 1.306400000000000061e-01 6.263037999999999883e+00 1.042429800000000029e+01 1.181069800000000036e+01 1.176779800000000087e+01 7.270497999999999905e+00 8.268599999999999561e-02 3.350157999999999969e+00 6.168038000000000132e+00 3.599800000000000222e-01 3.803307999999999911e+00 3.125178000000000011e+00 9.419778000000000873e+00 1.422638000000000069e+00 6.019288000000000416e+00 8.201988000000000056e+00 1.049069800000000008e+01 5.672118000000000215e+00 9.127268000000000825e+00 1.048289800000000049e+01 1.206249799999999972e+01 1.218418000000000001e+00 1.312799799999999983e+01 4.604327999999999754e+00 1.058678000000000008e+00 5.562488000000000099e+00 1.287729799999999969e+01 1.330909800000000054e+01 9.614698000000000633e+00 2.039489999999999914e-01 5.382599999999999885e-02 9.248288000000000508e+00 1.106739800000000074e+01 3.547088000000000019e+00 9.788398000000000820e+00 6.353308000000000177e+00 1.215989800000000010e+01 1.272809799999999925e+01 4.340498000000000189e+00 9.995597999999999317e+00 1.014369800000000055e+01 7.330187999999999704e+00 2.966737999999999875e+00 1.082659800000000061e+01 1.330899800000000077e+01 1.007489799999999924e+01 7.037017999999999773e+00 1.265739800000000059e+01 8.381617999999999569e+00 1.210099800000000059e+01 2.070467999999999975e+00 1.274619799999999969e+01 8.101307999999999510e+00 9.273578000000000543e+00 1.005459800000000037e+01 3.029878000000000071e+00 7.694067999999999685e+00 2.859497999999999873e+00 1.486828000000000038e+00 1.243669799999999981e+01 9.465678000000000480e+00 1.364919800000000016e+01 9.096417999999999893e+00 1.257349800000000073e+01 1.041459799999999980e+01 9.517927999999999500e+00 2.544118000000000102e+00 1.134359800000000007e+01 8.311427999999999372e+00 6.401588000000000278e+00 4.225877999999999801e+00 1.156849799999999995e+01 5.284227999999999703e+00 5.637868000000000102e+00 6.701778000000000013e+00 1.520178000000000029e+00 8.739727999999999497e+00 5.782537999999999734e+00 1.373969999999999914e-01 1.190449800000000025e+01 5.312000000000000055e-02 1.155129799999999918e+01 1.156897999999999982e+00 6.910928000000000182e+00 1.652838000000000029e+00 1.376509800000000006e+01 1.927939999999999932e-01 8.652777999999999636e+00 1.494158000000000097e+00 3.802608000000000210e+00 1.515978000000000048e+00 1.101089799999999919e+01 1.145869800000000005e+01 6.145597999999999672e+00 1.854709999999999970e-01 6.939537999999999762e+00 7.192657999999999774e+00 1.357859799999999950e+01 9.810897999999999897e+00 6.614848000000000283e+00 6.530867999999999896e+00 1.098599800000000037e+01 1.468458000000000041e+00 1.177489800000000031e+01 2.369218000000000046e+00 5.663598000000000354e+00 9.688997999999999777e+00 5.447467999999999755e+00 9.956098000000000781e+00 8.092427999999999955e+00 3.687348000000000070e+00 6.455058000000000185e+00 5.348509999999999653e-01 4.141808000000000156e+00 1.174439800000000034e+01 7.749927999999999706e+00 5.379888000000000225e+00 4.990067999999999948e+00 4.337748000000000381e+00 8.620879999999999654e-01 1.340979800000000033e+01 8.001300000000000079e-02 1.393167999999999962e+00 1.165409799999999940e+01 1.122519800000000068e+01 1.346839800000000054e+01 3.662657999999999969e+00 6.929648000000000252e+00 7.666348000000000162e+00 1.239767999999999981e+00 5.782187999999999661e+00 5.611818000000000417e+00 6.640107999999999677e+00 2.659927999999999848e+00 3.483607999999999816e+00 9.954197999999999880e+00 7.427838000000000385e+00 8.815457999999999572e+00 3.998247999999999802e+00 2.260337999999999958e+00 8.675667999999999935e+00 8.172180000000000000e-01 9.699398000000000408e+00 3.190177999999999958e+00 1.282759800000000006e+01 9.685997999999999664e+00 6.280147999999999620e+00 6.947817999999999827e+00 2.741017999999999954e+00 8.610887999999999209e+00 8.331758000000000663e+00 1.150039800000000056e+01 9.362488000000000810e+00 5.560368000000000421e+00 1.218089799999999912e+01 1.083309799999999967e+01 7.834368000000000443e+00 4.961800000000000099e-01 1.115258000000000083e+00 1.318809800000000010e+01 1.031277999999999917e+00 4.493978000000000250e+00 1.089769800000000011e+01 8.612079999999999735e-01 4.171748000000000012e+00 8.078279999999999905e-01 2.553437999999999874e+00 1.230619800000000019e+01 1.110879800000000017e+01 9.944297999999999860e+00 4.629258000000000095e+00 1.368799800000000033e+01 5.871929999999999650e-01 7.672188000000000230e+00 4.247107999999999883e+00 8.218958000000000652e+00 9.595898000000000039e+00 1.527817999999999898e+00 4.425037999999999805e+00 1.246798000000000073e+00 1.246249800000000008e+01 5.317487999999999992e+00 1.263749800000000079e+01 8.764279999999999848e-01 1.312319800000000036e+01 9.501378000000000767e+00 1.064539800000000014e+01 1.213609800000000050e+01 2.671797999999999895e+00 3.925787999999999833e+00 2.338038000000000061e+00 1.627968000000000082e+00 1.031809800000000088e+01 9.227278000000000091e+00 1.034549799999999919e+01 3.022047999999999845e+00 9.126737999999999573e+00 4.079017999999999589e+00 1.162429799999999958e+01 5.038797999999999888e+00 1.104597999999999969e+00 2.044777999999999984e+00 6.656217999999999968e+00 3.625928000000000040e+00 1.353969799999999957e+01 6.064078000000000301e+00 3.232727999999999824e+00 7.126807999999999588e+00 9.476698000000000732e+00 1.373258000000000090e+00 2.284568000000000154e+00 7.312779999999999836e-01 8.273058000000000689e+00 7.407968000000000330e+00 4.518548000000000009e+00 6.883727999999999625e+00 6.653897999999999868e+00 9.220779999999999532e-01 1.233049800000000040e+01 1.019819799999999965e+01 3.400618000000000141e+00 2.052017999999999898e+00 8.319188000000000471e+00 7.997918000000000305e+00 1.050069799999999987e+01 1.059239799999999931e+01 3.355268000000000139e+00 1.069989799999999924e+01 8.688568000000000069e+00 1.833587999999999996e+00 1.304779800000000023e+01 2.864907999999999788e+00 1.252059799999999967e+01 6.236527999999999849e+00 1.737430000000000085e-01 4.723680000000000101e-01 1.150879800000000053e+01 1.376414800000000049e+01 2.311847999999999903e+00 1.009779799999999916e+01 1.163089800000000018e+01 1.359349800000000030e+01 1.306919800000000009e+01 1.289039799999999936e+01 1.230699800000000010e+01 1.096479800000000004e+01 6.321498000000000062e+00 1.043359799999999993e+01 3.316377999999999826e+00 6.401568000000000147e+00 2.456338000000000132e+00 6.328337999999999575e+00 7.227580000000000116e-01 2.197788000000000075e+00 1.309288000000000007e+00 5.965358000000000160e+00 4.764368000000000158e+00 4.270127999999999702e+00 1.209387999999999908e+00 4.303268000000000093e+00 9.627997999999999834e+00 2.721767999999999965e+00 7.510407999999999973e+00 1.358479799999999926e+01 8.129187999999999192e+00 1.272129800000000088e+01 4.668657999999999753e+00 3.944478000000000151e+00 4.758367999999999931e+00 2.991788000000000114e+00 5.043838000000000044e+00 1.493099999999999983e-02 1.080239999999999950e-01 1.371288000000000062e+00 9.338698000000000832e+00 8.179427999999999699e+00