-7.791034411661994818e+04
-7.791410618004480784e+04
-7.791015886974916793e+04
-7.791422362304867420e+04
-7.791065683380223345e+04
-7.791478371111150773e+04
-7.791105839801939146e+04
-7.790962600562252919e+04
-7.791155194258196570e+04
-7.791595020529910107e+04
-7.791001014568147366e+04
-7.790953085666915285e+04
-7.790669730590043764e+04
-7.790925679571539513e+04
-7.790855543486397073e+04
-7.791045805361181556e+04
-7.791110149708038080e+04
-7.791431634429805854e+04
-7.791259007441304857e+04
-7.790893124014521891e+04
-7.790997523210779764e+04
-7.791155787877242255e+04
-7.791545931470238429e+04
-7.791157020163828565e+04
-7.791229915390966926e+04
-7.791075913027672505e+04
-7.791405110292682366e+04
-7.791156015901580395e+04
-7.791517210768103541e+04
-7.791409966220032948e+04
-7.791164024795670412e+04
-7.791555188059332431e+04
-7.791175937728713325e+04
-7.791239939180662623e+04
-7.791486531008209568e+04
-7.791453011890032212e+04
-7.790761873066275439e+04
-7.791550574139565288e+04
-7.791358994353999151e+04
-7.791060685678161099e+04
-7.791395173182147846e+04
-7.790923872765206033e+04
-7.791390245648520067e+04
-7.790944808540951635e+04
-7.791135913678561337e+04
-7.790929596582072554e+04
-7.791111167111809482e+04
-7.791492151736265805e+04
-7.791516059368134302e+04
-7.791453434588805248e+04
-7.791233232282249082e+04
-7.791407580017737928e+04
-7.791378167288299301e+04
-7.791389698761164618e+04
-7.791303638263160246e+04
-7.791307169545488432e+04
-7.791073949163344514e+04
-7.790880511700821808e+04
-7.791183254346501781e+04
-7.791392777413740987e+04
-7.791333314209539094e+04
-7.791599738384668308e+04
-7.791365155857821810e+04
-7.790910592638993694e+04
-7.791487732885699370e+04
-7.791334594750018732e+04
-7.791565832937206142e+04
-7.791613740082098229e+04
-7.791766819769388530e+04
-7.791184259393725370e+04
-7.791489415124287189e+04
-7.791195364731065638e+04
-7.791015142532471509e+04
-7.791208396136444935e+04
-7.790696587088395609e+04
-7.791661001470898918e+04
-7.791209041484803311e+04
-7.791342363054059388e+04
-7.791025592653307831e+04
-7.791357967261868180e+04
-7.791165389710983436e+04
-7.791182219768990763e+04
-7.791107025651563890e+04
-7.791191916044251411e+04
-7.791254530310758855e+04
-7.790648893323114316e+04
-7.791133055380062433e+04
-7.791382808341177588e+04
-7.791065527655559708e+04
-7.790989431059437629e+04
