5.981692568010608113e-01 1.699353805641614867e+00 1.201584078705381531e+00 -3.473396107409894018e-01 -1.420894568505838562e-02 6.527126437731995967e-01 -2.270500251763191146e-01 -5.402057881210713397e-01 1.348365799213180116e+00 -1.246172667634778408e+00 -3.217221651656333448e-01 1.125839887533428146e-01 -1.610724787022118409e+00 1.093118997556892236e+00 1.221788323237504598e-03 -1.384866725369900520e+00 2.156507812581671679e-01 -6.922644411932905861e-02 3.974108205047122144e-01 -1.344223237457287334e+00 3.710405558615028077e-01 7.206926169769025670e-01 3.797807646704539630e-01 -4.939038159033631858e-02 1.964984779604071807e+00 -2.305833896988199516e+00 2.578991518967166385e-01 -8.937037056630254828e-01 1.335951997903720212e+00 -1.353576397310556123e+00 -9.373451001095084445e-01 -1.304259035056036242e-01 4.250254991808488647e-01 -6.058419434892032829e-01 -1.885904324694254452e-01 1.524987745477490719e+00 -3.876195446365450492e-02 -5.067480199175997679e-01 -9.379277121340152679e-01 -1.105319397286325334e+00 1.968505648564175647e+00 2.112279178124609746e+00 -8.410115131200343042e-01 -1.009230065117363712e-01 -1.067460928548229937e+00 -1.585050262951863687e+00 -6.286347748980848638e-02 -1.094978933737511095e+00 4.084840485150642575e-01 1.803634158938880461e+00 2.745954858297398715e+00 1.726206409277752263e+00 -6.776451474097711092e-01 1.037600133964727611e+00 -1.009761255074394404e+00 2.064863403925363827e-01 8.640552842182001869e-02 1.005612522670404241e+00 1.252669331639737482e+00 -2.514585379453067593e-01 -2.352137926088606334e-01 -1.808015319087863393e-01 3.251407042114594637e-01 -1.799938969170031600e+00 -5.002575265607379640e-01 -1.313057865021910242e+00 8.881778902920195451e-01 -1.404985609270012814e+00 -5.212521282699723590e-01 -7.162106695756660368e-01 -1.157147699095714355e+00 -8.976194961013477247e-01 1.672249748095518296e+00 1.121002613645930124e+00 -7.295336130381073758e-01 2.608542238483786413e+00 -1.645478391325993162e+00 -1.065501233556707339e+00 7.933807946787377885e-01 -3.009158196454297940e+00 5.455454556078129791e-01 5.590128950798628482e-01 -3.791426168130727081e-01 -3.855621477168172384e-01 -2.654715655532803933e-02 1.531707067034622227e+00 3.778915693334411685e+00 1.916833669839915100e+00 9.791954639457913778e-01 -2.535817551114042945e-01 -6.454472198594695120e-01 -1.875219333293348667e+00 -9.195252968462626075e-01 2.129562135003402634e+00 1.461479949482203944e+00 -6.362966629520573972e-03 2.570162349981481298e-01 -2.145252550452453999e+00 -1.177069636477392489e+00 -2.484611456321117462e-02 1.780281855435856597e+00 1.064929420166370377e+00 3.964595122564002483e-01 7.128641214243067181e-02 -7.640439909628190529e-01 -1.036021990713879015e+00 -1.196879473751972234e-01 -1.721234923794141114e+00 -6.164030077074911240e-01 1.884990040334525219e+00 -1.211753306769499439e+00 -7.142278346537789258e-01 -2.339925185062979307e-01 -3.951137967505448101e-01 -9.370813049033550612e-01 -2.194745261957068150e-01 1.920814766303932108e-01 -4.233702228287858915e-01 -8.644404355035979481e-01 1.091142847503777213e+00 -7.282053810351937218e-01 -1.701231739545850052e+00 -2.238834542611270184e-01 -8.091159473264936119e-02 -1.825069961987061840e+00 -1.528299840843640733e-01 2.565914887207936257e-01 -1.683369770187273629e+00 -1.309585332805234037e+00 -1.091690492522400024e+00 -5.027031600899121155e-01 1.943325290562368357e+00 -2.905372523446154709e-01 -6.378820052923525052e-01 6.089524643508462676e-01 -5.071701950915804558e-01 -4.943203346499214050e-03 3.564613712906148923e-01 -2.907388268491226668e-01 -1.370434607911994895e+00 4.526844008350150439e-01 8.705154385552510421e-01 3.218435212448774729e-01 1.632919579786250353e+00 -1.895202977155998392e+00 -1.249305299985436157e+00 7.955081256102334297e-01 2.233136977534893042e-01 1.841463831319189115e+00 5.830429414322246817e-01 -3.843799543855364736e-02 1.343263701678178990e+00 -2.530047995143198669e-01 3.476208894500849023e-01 6.016207059700717785e-01 6.426781415258694952e-02 5.299830811067777203e-01 -6.319108748170014778e-01 -1.217598967400208343e+00 2.373148982859433209e-01 -6.709319965007366493e-01 6.469585144225987738e-01 3.613850342514730585e-01 -1.578674955026148741e+00 -1.474003279795388144e+00 4.249385958868138191e-01 -1.615146570604407694e-01 1.256885426952121465e+00 2.523275708856567157e-01 -6.193026980924811742e-01 5.966224810113728294e-01 -8.707679209065598558e-01 -7.631132515414975614e-01 -2.438312055206782958e+00 -4.236047074564779358e-01 -4.611782979407546001e-01 -1.395123370948728514e+00 1.628860836000343815e+00 -1.383443362542156052e+00 2.836544086129092479e-01 3.769201550567459202e-01 -1.044049489667608244e+00 -4.382687384387017882e-01 -6.655167385748047559e-01 1.511921912352430786e-01 -1.543768627181869135e+00 5.986521100146634522e-01 5.354914129748418183e-01 -7.950396705755241600e-01 6.092383710460146096e-02 3.643623719583523601e-01 -9.662787548164130103e-01 2.315998497066244777e-02 1.430872506478944928e+00 -1.674749374795542201e+00 1.390267585116939097e-01 1.519182708280088501e-01 2.095779893554155393e+00 -5.646708651642829979e-01 -1.441948305592670954e+00 -5.272325147174691251e-01 -2.449900018112573186e+00 7.754483770877186322e-01 -1.159351648907749749e-01 1.454190357196759820e+00 1.442131882373561547e-01 -5.260220392490762981e-02 -1.924285755858584079e-01 -8.629394253539639237e-02 -1.984371927483996156e+00 3.962790207995583458e-01 -1.106912452936742008e+00 -1.552262524287608692e-01 -2.254651970566987629e-01 3.161325864309567080e-01 2.555229381586355819e-01 4.341621721300424341e-01 1.979700232653771819e+00 -3.381201482631588928e-01 5.135038511426395225e-01 1.007440062948512738e+00 -9.745906178032862632e-01 -2.802476966426026284e-01 1.391711002550999554e+00 -2.078261937826995531e+00 -4.437436459629062746e-01 2.601058785003956597e+00 4.374752959375420858e-01 -1.329296953930934055e+00 3.397224598857212507e-01 -9.792345447170732742e-01 -2.192262090318636503e+00 4.645006777203999904e-01 -5.755029236781710189e-01 1.324719875704866157e-01 -3.413695087069879008e-01 -4.423459941688997477e-01 -7.398406522430620580e-01 -6.069218069062062293e-01 -2.464248317600492219e-02 5.685347193144540956e-01 6.034379618346851215e-01 -1.642275310742892902e+00 -1.102367256392509542e+00 1.463019011961770310e+00 3.622761786808377793e-01 -2.193818122080470001e+00 6.922058200363675473e-01 -4.463738847143203237e-01 1.229471808559817303e+00 5.065330756755487968e-02 8.240376028667739661e-01 -3.913630711488215730e-01 -1.616068054053583447e+00 -9.714708409694976232e-02 8.409307804740966119e-02 -1.844211312384449186e-01 -1.578304201919644267e+00 1.995993828954320537e-01 5.976771476153122098e-01 -6.335702649344625570e-01 1.022527297546066860e+00 6.602094669905732571e-01 -4.423480510515987452e-01 -1.971433621086277954e+00 9.610691851603861968e-01 8.815701546213116080e-01 4.947209125555620535e-01 -1.367491722990324732e+00 7.783352119558396565e-01 -4.630269212665285017e-01 -2.608656909694258563e-01 -1.475084685874415324e+00 8.818714879367228754e-01 1.156406707103380560e+00 4.506239185912386813e-01 -3.211224810147244035e+00 1.806297307813479414e+00 6.277677988404338771e-01 3.784864712320747393e-01 8.512203361761093434e-02 -3.203934189420450385e-01 7.423325656329647915e-01 4.841572772339003405e-01 5.469837308351258587e-01 9.264868163412076640e-01 2.163923388932432967e+00 3.750636127325806424e+00 -1.250050919963842988e+00 -2.715625094458511968e-01 -3.857169281399209625e-03 -2.144079098872644085e-01 -1.091433896405693105e+00 2.037632333872600565e+00 1.514856055522630029e+00 -2.086629850867418146e+00 -5.700912652969625238e-01 -8.623362445024667089e-01 -9.206982342053976476e-01 -1.989992873679833074e-01 2.082336622453819786e-01 -5.173265676388296708e-01 3.331584329723682320e-02 1.023995911793190494e+00 -2.158336381301130036e+00 1.293826011785764507e+00 8.521037672953526432e-01 -1.663007659907997926e+00 4.825395389910950850e-01 -5.664192154584780231e-02 -1.278785571269613897e+00 1.625436126306420703e-01 -1.724019428747984195e+00 3.086321636688598158e-01 9.863575295038938540e-02 -1.591186458263813552e+00 -4.249776766580957987e-02 -2.532954884617635294e+00 1.090816831595977199e+00 -8.418882593705057094e-01 -3.848057291042404904e-01 -1.207030189871799095e-02 1.807578231514314515e+00 9.965792080768378636e-01 1.284953648263399195e+00 -2.192708948085005383e-01 2.741120155513274148e-01 1.328334332827777242e+00 7.001222473243479127e-01 7.657362912034651470e-02 1.053984233104034551e+00 -1.095614510491518478e+00 6.523146369709328929e-02 1.373946220899953385e-01 1.273867050515503196e+00 -1.307380354551849200e-01 -8.647494821291305811e-02 -3.028975747038999411e-01 -2.748910598735937461e-01 5.521557623818946769e-01 1.019893973470604065e+00 3.822978748734200960e-01 -6.460025781882138274e-01 -3.088311670699931955e-01 -8.299665672467942956e-01 -7.290939543611847373e-01 -1.965135446261777608e-01 5.419294558228777703e-01 -1.595632924438491695e+00 -1.647887000966584414e-01 9.540176770473577372e-01 -1.192158927957645553e-01 -3.465867916731359966e-01 -8.359438683702423711e-01 1.198735810387867806e+00 -1.017524958821969916e+00 -2.319699857483190630e+00 2.906411249209176484e-01 -2.714125626970902427e+00 -7.214171539076439377e-01 -5.016520930306960224e-01 -1.296466534950673877e+00 5.681238569953181994e-01 1.659420970701524223e-01 -1.139373661472522281e+00 5.735154607702110940e-01 2.225847385249448696e+00 -2.622694619894621049e+00 -3.614194870366821966e-01 -7.086721944836366083e-01 3.737489561554809270e-01 7.290980681265826768e-02 2.210773520389438807e-01 1.698705373370738236e+00 -2.453084586751382024e-01 -7.308721294545160729e-01 2.694675744168656406e-01 -7.983908467129563480e-01 3.643613435170028197e-02 1.850275002581257544e+00 1.204745507413825800e+00 -1.543165960551046711e-01 -7.238093084866427107e-01 1.069717843089765807e-01 -1.167646028391681051e-01 -3.258071342059526421e-01 2.939372794461501126e-01 -1.554273127125932907e+00 -1.290662526194620741e+00 -2.376229164701264829e-01 6.447633063620344940e-01 4.861390837144378696e-01 -7.129469109529436022e-01 -1.009387416643841240e+00 -2.512600487648481984e-01 -7.206993018456744338e-01 6.964409415137176040e-01 2.182955724546770782e+00 7.652076723498084654e-01 -7.101310385379400181e-01 -8.747191925714408178e-01 2.004740722632043504e-01 -6.079466487110093409e-01 2.756958152295982400e-01 3.682704490865530977e-01 -1.110366987429801666e+00 -3.383716021731181800e-01 -2.034169571848744862e-01 9.930624528821320185e-01 -6.794315500338986569e-01 5.032214945300733655e-02 9.100317547487833669e-02 7.692093376408161154e-01 7.482939259154953657e-03 8.608583742831971142e-01 -1.741871113693065770e-02 2.270495109556443791e-01 7.783213279976211041e-01 -5.885003654534870510e-01 -6.714127928316403204e-02 1.230501792571368380e+00 -1.593504050844971598e+00 -1.351886153952609193e-01 -4.210413173927830544e-01 7.832671024474940902e-01 7.371317377284091199e-01 5.393501249182652835e-01 -6.561481521012929585e-01 -1.266335260292245912e-01 5.023113239357424736e-02 2.399621063196246129e-01 -1.860244713023567753e-01 4.063412909633258296e-01 2.045441289039555688e-01 4.726654735942910635e-01 -2.593914202948796044e-01 2.638692539307180840e-01 8.797600978461449506e-01 -1.219971581593566112e+00 -5.751100590826518921e-01 -1.353625248274658910e+00 3.376146693398666132e-01 4.252445571882980113e-01 1.928836608830239163e-01 -4.652051600448256496e-02 9.813546765591221188e-01 1.602369215277890113e+00 5.547813731472358567e-01 1.616632668354473612e+00 7.076890045534892648e-01 -8.230569840400004944e-01 2.190502941390271019e+00 7.289355743933576548e-01 -4.114901825797302459e-01 -2.621980367377374499e-01 9.856859573026531818e-01 1.440685379615452177e+00 -2.996204463436336618e-01 5.840574988235325282e-01 7.295582956304959010e-01 5.416620610720008777e-01 1.448107126614310569e-01 4.020043537923724264e-01 -2.426555942140345423e-01 -3.998507976064639702e-01 -1.219006389387035316e+00 -6.128744254372656686e-01 -6.102513857752982496e-01 2.481377008276856311e-01 -6.581957788282002397e-01 3.840441682849160543e-01 -5.923487929834153620e-01 -4.047878303048659809e-01 8.779736952220175139e-01 -1.077816818717287350e-01 -7.883326903145869702e-01 -1.172705959831351619e-01 -1.827562903818313877e+00 -3.299137005146120238e-02 -2.242968876836366754e-01 1.405501886827475344e+00 -3.135506844229703494e-01 7.272725847311732883e-01 4.187869739546209447e-01 -5.601560076398614391e-02 7.653969055581212322e-01 1.696636149375490898e+00 -1.359109925991683676e+00 7.838677121956176552e-02 -1.304069287627048546e+00 -8.586595666779094360e-01 3.578826772356605290e-01 -4.152321664299826187e-01 -2.642580047608390596e-03 3.629071274487722931e-01 3.090728507871319253e-01 -6.878580842312441712e-01 -3.495718426901366915e-01 4.063073523987913993e-01 4.197876473877102943e-01 4.515227763307248510e-01 5.348398953799168298e-01 3.009949582072758423e-01 -4.622262796759220582e-01 -8.495881997544106889e-01 -1.494515542511694606e-01 -3.659615982568660830e-01 -6.187720223561254951e-01 -1.014557391307910903e-03 8.760057726996983707e-02 -4.895622507463369688e-01 1.228370347874474383e-01 -3.586113279318000613e-01 -6.670876827362065553e-01 1.028712858042793998e+00 3.897494466714144790e-01 1.250708608206865025e+00 5.677330492824981256e-01 2.385521132294237540e-02 -1.294025015186897720e+00 1.428488579430742700e+00 -1.735443355258524667e-01 -6.091103300979985313e-01 2.110094254477540010e-01 -3.322986560041640280e-01 2.069134006629272715e+00 -1.460104923397886889e+00 -4.205641206066028093e-01 -4.284332395925048997e-01 -9.676136716880984201e-01 9.007109907980245245e-01 2.705561795853395068e-01 8.848976766077047973e-01 -6.530859679830777753e-02 7.146916617024152707e-01 1.101234942466680966e+00 -3.847399088578707937e-01 -2.855976485428395883e-01 -7.265377633869365415e-01 -8.675283306555512386e-01 -1.025685640930462883e+00 1.412290628175699947e+00 -7.054182060537346477e-02 2.084373450546556761e+00 -1.734721903651831987e+00 1.189691182939456748e+00 4.909305919618819902e-01 2.457532595588084456e-01 -4.199480842382364854e-01 8.953569251323894029e-01 -5.405024934504096823e-01 2.253415784064856986e+00 8.306643647024480881e-01 -9.434381008847785299e-01 2.461456099336528092e-01 1.007193751245301305e+00 -3.351920728969219887e+00 1.565524275489753314e-01 2.965202098954859700e-02 1.477600767636032097e+00 -9.863580437245687005e-01 -1.236799967395868505e+00 1.216022366811384314e+00 -5.596366447583506210e-01 -6.929956629928039069e-01 -1.910854311833767583e-01 1.368372583006194354e+00 6.759153090598674085e-01 -4.863329449088236722e-01 -1.076145601524306633e-01 -3.132776332446711165e-01 -2.619938911298564377e-01 8.956495166963296395e-01 1.918439066786525593e-01 -8.962311002794869363e-01 6.850787214841487227e-01 1.081215303156797702e+00 -2.053485757275552270e+00 6.553973899161387173e-01 -3.882057562057751876e-01 -3.779609377024667483e-01 -9.270324044771315330e-01 2.560397299367726531e-01 -1.617861655767157680e-01 -5.170509453571565661e-01 -4.292919881193595771e-02 3.499425957966410122e-02 -8.805052036038769903e-02 -5.209533660579348524e-01 -7.900481304855971887e-01 -1.685898193245084498e-01 2.370100682699436856e+00 -7.735215922193807714e-01 9.301583519590173044e-02 4.240284252924828579e-01 -2.364186116498309675e-01 6.173275764807154564e-01 5.706409671982843462e-02 -7.186491040153932808e-01 -4.502973884627639589e-01 -1.913003754254278266e-01 1.176613008518202719e+00 4.727323222820102866e-01 1.223834921523062336e-01 -2.391090142201923452e-01 -6.536135583953849304e-01 7.443333982784686720e-01 -1.627287320735568144e-01 2.455352299927088255e-02 1.420426627691804278e-01 2.328806705633247986e+00 8.561563404331617999e-01 1.229630188527644497e-01 7.501615754062355146e-01 -4.211930124918382423e-02 1.257272635120218141e+00 2.974751176885213622e-01 -7.234750650480464840e-01 -1.981225411175119577e-01 -3.601334211290992959e-01 -1.277491277831234617e+00 6.714909543742042519e-01 1.339845162632352871e+00 -8.237542672749793571e-01 2.278715441263209129e+00 3.477062500820956026e-01 -1.600708282498404911e+00 -6.186979745789595864e-01 -5.489007455106433842e-01 -5.325073903991905944e-01 -7.520189404834803915e-01 -2.702894018992723080e+00 1.135640933594415758e+00 -5.333291150374622758e-01 1.750561957317239070e+00 -5.697385099140748199e-01 -3.993468613451959248e-01 4.148315885243419321e-01 5.198246516768295633e-01 -1.274676433857580671e+00 5.105866772547076327e-01 3.916448640785917812e-01 -1.856120148991291741e+00 -4.082706469350375761e-02 -1.182707551955497005e-03 -2.257639592687362418e-01 1.504487309836703979e+00 8.613674527512127366e-01 1.501824160962104804e+00 -2.342984798077820119e-01 -7.708286185456456607e-01 -1.020025099742668750e+00 3.298103421589846374e-01 -5.161639146931898958e-01 -4.226883662140498155e-01 5.892711822449572256e-01 6.765765968476130654e-01 1.392157860317368545e+00 8.525444544136246972e-01 1.172810346628328393e+00 -1.170220731310220641e+00 4.641016424767836490e-01 2.928682146633173056e-01 -7.482764424125533109e-01 1.566212816973261202e+00 1.012273223070612627e+00 1.245609595995912589e+00 4.495790221801196918e-01 1.379089970309610003e+00 9.331295190177993915e-01 1.379911180727206865e+00 4.588961865861552747e-01 -6.825559548537603327e-02 6.511987781066964909e-02 6.701184993932611800e-01 -5.747650170098858036e-01 2.141569701979799401e-01 -1.088286351655467360e-01 1.424434977851583906e+00 7.400967341390941590e-01 1.178686346278848274e-01 -1.199351846756234075e+00 1.023712061980721399e+00 -4.201419454326221214e-01 -1.276970372287699496e+00 8.216526473772219064e-02 -9.208046778850736969e-01 -1.226260500445920609e+00 8.394863345986864900e-01 -1.358509316243559972e+00 -4.094996343477217554e-02 6.297012685775437157e-01 -2.296797497070584282e-01 -8.597456007430094305e-01 6.199490734806585301e-01 2.050935736949401011e+00 7.175682121570410299e-01 1.534917346707169283e+00 -1.532778702920828851e+00 1.610035217097261162e+00 2.377756400105312130e-03 5.329845871853708394e-02 -4.914612676982377248e-01 4.596670033776253383e-01 -5.577150020967603927e-01 1.295202066311430977e+00 6.018125102817584171e-01 -5.586585970349507990e-01 -8.921631005214347709e-01 -1.140777998135300703e-01 8.932599332207048493e-01 -6.997808047963051115e-01 -1.128803341282088590e+00 2.708194605708182934e-01 1.904647668289375373e-01 5.149806929205595907e-01 -1.110852925967452887e+00 1.048891391541179274e+00 7.221756294029199053e-01 1.623182297088933357e+00 3.023591856574228132e-01 6.770409381169242291e-01 -2.246879525067941419e+00 -3.063413105627894595e-01 1.116656420502831093e+00 -5.305209559325800850e-01 4.671118903068478545e-01 -3.035074404241691615e-01 7.742970369969237598e-01 2.460988158522493530e-01 1.188785640331198740e-01 -1.567719997770992135e-01 -5.509514575615991755e-02 -9.691856442908495239e-01 8.118562293023071641e-01 -6.518955471210008401e-01 -9.710013574934387437e-01 -5.073347457075046973e-01 -8.640938507688076253e-01 -2.678362607482466906e+00 6.586868595725992037e-01 3.965068205584784677e-01 2.540630656629827011e-01 -1.934883843965454764e-01 -4.626366277743831912e-01 5.707823778838443385e-01 -1.627965577805581043e+00 8.480609643503637107e-01 6.410316069252773863e-01 6.472871014337725493e-01 -1.566485868151560601e-01 2.092549045054618029e-01 -2.686129396554091109e-01 2.558546104938579369e-01 -2.032360029294253412e+00 -1.199820816011618191e-01 -4.762418783872694461e-01 1.421434500214340035e+00 -3.369585237588687221e+00 5.195634275740499408e-01 -8.626617461895919048e-02 6.415813088265993613e-01 -1.978212078021007181e-01 1.080840436284895151e-01 -2.452832618620748219e-03 4.834502238061008095e-01 7.079867383241772449e-01 -2.724654809507354725e-01 5.929514596142378968e-01 9.820421896012806462e-01 1.055128888326057668e+00 1.109762778136954786e+00 1.774217136797698435e+00 1.030031319852886984e+00 -1.957295637854336690e+00 1.310136577368580524e-01 7.658699885789035933e-02 5.292503166452401375e-01 1.544563612345053238e+00 -1.471858979581625315e-01 7.806641173918425769e-02 -8.775165530421529247e-01 -1.339408075058803993e+00 6.272258102492334064e-01 7.872924218895409332e-02 5.153149363591558174e-01 -1.466871039036421742e-01 -1.452066111589312758e+00 2.019137873084065671e+00 4.699087365568851982e-01 7.077687087580776248e-01 -6.586544636700891742e-01 -2.232992995745959330e-01 5.097459264514696553e-01 -6.915892694473263491e-01