7.711399070001014877e+01 7.797128236116650513e+00 -1.442441541374251202e+01 7.797128236116650513e+00 9.768180116538407276e+01 1.421067662213213545e+01 -1.442441541374251202e+01 1.421067662213213545e+01 8.042282688988903772e+01
1.077619032593888804e+01 6.571499021656686423e+00 5.095472289662659193e+00 6.571499021656686423e+00 1.359725230663532081e+01 1.112871943637334127e+01 5.095472289662659193e+00 1.112871943637334127e+01 2.433209445880247657e+01
7.471762647587057415e+01 -9.142404754858965532e+00 4.822751734977838822e+00 -9.142404754858965532e+00 7.041963067415565547e+01 -4.857740620499619411e+00 4.822751734977838822e+00 -4.857740620499619411e+00 7.875368515399036085e+01
2.022656994725374702e+01 5.297565911582058362e+00 5.747865524069059040e-01 5.297565911582058362e+00 2.568415201491239941e+01 4.639439383569688324e+00 5.747865524069059040e-01 4.639439383569688324e+00 8.736425411020782406e+00
6.116843803691362069e+01 -2.831348697274366888e+00 9.783334718792294993e+00 -2.831348697274366888e+00 4.730556459648578738e+01 9.387663176883389582e+00 9.783334718792294993e+00 9.387663176883389582e+00 6.842126272181425861e+01
5.060205715414586791e+01 -1.185315589546424464e+00 -1.209324722685295583e+01 -1.185315589546424464e+00 4.437453994887054876e+01 -7.420057825242276195e+00 -1.209324722685295583e+01 -7.420057825242276195e+00 4.250865561213366561e+01
5.876452788647115710e+01 -1.085361569935334281e+00 1.067286178891100690e+01 -1.085361569935334281e+00 4.663466590409977641e+01 1.985145663390350990e+01 1.067286178891100690e+01 1.985145663390350990e+01 4.922368175174153748e+01
2.941809373481439494e+01 8.618730818595047083e+00 -6.010499724832784052e-01 8.618730818595047083e+00 3.670451072693247774e+00 4.414034561670691303e+00 -6.010499724832784052e-01 4.414034561670691303e+00 3.273742798179010549e+01
7.289829188771604151e+01 -3.547054537557419729e-01 -5.011640991688155466e+00 -3.547054537557419729e-01 7.787139610859442485e+01 -2.088978599873179576e+01 -5.011640991688155466e+00 -2.088978599873179576e+01 1.054014806129900990e+02
5.368784759596597667e+01 1.259161855561134402e+01 1.460643945341587369e+01 1.259161855561134402e+01 4.323559088920191584e+01 -1.561999137609835842e+01 1.460643945341587369e+01 -1.561999137609835842e+01 3.578641443100454467e+01
5.973964210796955854e+01 1.711217663044985737e-01 7.939363505627364148e+00 1.711217663044985737e-01 4.078013590286430201e+01 3.795785481699250674e+00 7.939363505627364148e+00 3.795785481699250674e+00 6.280740882306834294e+01
8.871830823042236602e+01 -7.281375806271960016e+00 -1.109456604521513512e+01 -7.281375806271960016e+00 9.430873400388448147e+01 -6.867245032817678840e+00 -1.109456604521513512e+01 -6.867245032817678840e+00 7.979632162199936829e+01
6.809814338037524806e+01 4.104894929615112709e+00 2.922880644957892127e+00 4.104894929615112709e+00 7.396110966476750548e+01 9.264747011736497839e+00 2.922880644957892127e+00 9.264747011736497839e+00 7.607090125180438633e+01
6.149387648780845694e+01 -2.372198909319174209e+00 -3.834410020589529733e+00 -2.372198909319174209e+00 5.683469123301120618e+01 1.083351908024632237e+01 -3.834410020589529733e+00 1.083351908024632237e+01 8.364394567913096523e+01
6.610741185585146695e+01 -2.855616559199984916e+00 4.880368180503649178e+00 -2.855616559199984916e+00 8.806004510151224451e+01 -6.708578274575496714e+00 4.880368180503649178e+00 -6.708578274575496714e+00 8.670067075793768652e+01
5.699490481185881308e+00 1.768273603306165231e+00 7.090513529435478191e+00 1.768273603306165231e+00 2.524863181476622387e+01 7.349319021257787021e+00 7.090513529435478191e+00 7.349319021257787021e+00 1.992541971197305628e+01
3.164675531044231604e+01 1.804923029871809137e-01 7.057458552655727857e+00 1.804923029871809137e-01 3.946791122358655457e+01 -4.765354011776190113e+00 7.057458552655727857e+00 -4.765354011776190113e+00 2.059574340081486454e+01
3.403355098766544273e+01 -8.127688170644480792e+00 1.276386939556698186e-01 -8.127688170644480792e+00 3.714204340082032729e+01 3.000128582879441730e+00 1.276386939556698186e-01 3.000128582879441730e+00 4.902775366125709411e+01
2.570221898034066754e+01 -1.441815667615278684e+01 -3.988674093285977662e-01 -1.441815667615278684e+01 4.251179189645763756e+01 5.517564604361830938e+00 -3.988674093285977662e-01 5.517564604361830938e+00 3.883510927944656288e+01
7.616416654652226725e+01 2.232058605729294598e+00 1.414623597854233239e+01 2.232058605729294598e+00 7.739049022006973644e+01 4.980092868921582649e+00 1.414623597854233239e+01 4.980092868921582649e+00 7.350297550993474260e+01
9.698696903208332287e+01 -6.263040544830491108e+00 -1.019663793389798556e+01 -6.263040544830491108e+00 7.370126889615922039e+01 8.816406479619020686e+00 -1.019663793389798556e+01 8.816406479619020686e+00 7.508161307870906853e+01
4.956650312756035248e+01 3.695915212885911849e-01 -1.250978076658111959e+01 3.695915212885911849e-01 6.943124442693223841e+01 4.728036465450434100e+00 -1.250978076658111959e+01 4.728036465450434100e+00 6.650770519331145181e+01
3.561183565167213771e+01 -6.737871449338728169e+00 7.662617487900694080e+00 -6.737871449338728169e+00 5.281841178358988032e+01 1.624242796750518636e+01 7.662617487900694080e+00 1.624242796750518636e+01 4.922476227464606069e+01
7.345220720321208319e+01 -3.919236878099437771e+00 8.824096006684905902e+00 -3.919236878099437771e+00 7.937442022781391415e+01 -1.810548080012674887e+01 8.824096006684905902e+00 -1.810548080012674887e+01 8.172011113513171665e+01
4.266698110219310536e+01 -7.612961081625639892e-01 5.491669226773312928e+00 -7.612961081625639892e-01 3.274096809275819453e+01 -3.293455320377891016e-01 5.491669226773312928e+00 -3.293455320377891016e-01 4.261908172105307102e+01
5.747624185314300860e+01 1.396021690790272451e+01 3.621662857067442953e+00 1.396021690790272451e+01 6.411427789502293706e+01 3.301020127569481044e+00 3.621662857067442953e+00 3.301020127569481044e+00 5.937903154194565047e+01
4.271748458916816560e+01 -8.232779916022266775e+00 -5.822047483602579732e+00 -8.232779916022266775e+00 7.961418996138848847e+00 8.461585903637441897e-01 -5.822047483602579732e+00 8.461585903637441897e-01 3.040319925220403263e+01
4.022745985916763090e+01 6.989229686630353378e+00 5.990513381838638018e+00 6.989229686630353378e+00 5.042216254153002097e+01 -2.100051444139571899e+00 5.990513381838638018e+00 -2.100051444139571899e+00 5.569734562051473858e+01
6.696592834765856317e+00 1.506881914001029088e+01 -2.731412339546251289e+00 1.506881914001029088e+01 2.071763473572944037e+01 5.618730051655738578e+00 -2.731412339546251289e+00 5.618730051655738578e+00 3.693332184748580005e+01
5.433176500591019220e+01 -2.110712282265197004e+01 -9.753857444800294374e+00 -2.110712282265197004e+01 3.608354970979721799e+01 3.216393672128365910e+00 -9.753857444800294374e+00 3.216393672128365910e+00 3.397528784546327074e+01
4.205709408238894298e+01 -4.294885576028883989e+00 -8.146785860511263078e-01 -4.294885576028883989e+00 8.750337732125763068e+01 7.912997471873168820e+00 -8.146785860511263078e-01 7.912997471873168820e+00 5.597187780639011123e+01
1.314306775650385006e+01 -6.066618868957157851e+00 -9.853307238921370725e+00 -6.066618868957157851e+00 1.577721155625885352e+01 -2.289777528074833368e-01 -9.853307238921370725e+00 -2.289777528074833368e-01 -1.161915279163323689e+01
1.677169279838621563e+01 -5.821933694240902568e+00 3.062662429469008352e+00 -5.821933694240902568e+00 3.788936079403237045e+01 -6.593077904932187927e+00 3.062662429469008352e+00 -6.593077904932187927e+00 8.438853110863471230e+00
5.183838476483431634e+01 3.624270933127791139e-01 5.423542958550797266e+00 3.624270933127791139e-01 2.374191772588809002e+01 6.763870055813248072e+00 5.423542958550797266e+00 6.763870055813248072e+00 3.724971394269152114e+01
2.693328791447694570e+01 -7.975323855422839614e+00 3.078284130014306896e+00 -7.975323855422839614e+00 2.834648596196032599e+01 1.269015522451443090e+01 3.078284130014306896e+00 1.269015522451443090e+01 2.648543343713103937e+01
9.264597761431321743e+00 5.019039507218852947e+00 1.475354466397507558e+00 5.019039507218852947e+00 1.652155315699117466e+01 -1.871750646337952162e+01 1.475354466397507558e+00 -1.871750646337952162e+01 1.257018779457172775e+00
5.315455146980726653e+01 8.338222450359983995e+00 1.036907895290410586e+01 8.338222450359983995e+00 8.114771665996158845e+01 -4.921141864451314518e+00 1.036907895290410586e+01 -4.921141864451314518e+00 8.490260736472649228e+01
5.473367359341714256e+00 -1.186635716495541537e+01 9.122452770664786215e+00 -1.186635716495541537e+01 3.715235507164974393e+01 -1.132331401928237469e+01 9.122452770664786215e+00 -1.132331401928237469e+01 5.239159779186687871e+01
3.900181303858219817e+00 -1.107834385525617860e+00 -5.466103081146964193e+00 -1.107834385525617860e+00 2.560884401425109758e+01 4.959808106872505284e+00 -5.466103081146964193e+00 4.959808106872505284e+00 3.380722799212491747e+00
6.130137151259229000e+01 -1.392236751651302784e+00 -2.103889200303978857e+00 -1.392236751651302784e+00 5.594045300689471389e+01 2.115608924046234129e+00 -2.103889200303978857e+00 2.115608924046234129e+00 8.168738356341150109e+01
8.998839081663776440e+00 -1.691742959901456445e+01 -1.824019998233848838e+01 -1.691742959901456445e+01 1.854559960538605168e+01 1.129670753868999888e+01 -1.824019998233848838e+01 1.129670753868999888e+01 3.664075300836465487e+01
9.384005329408095974e+01 -2.967008284878856816e+00 -4.048573085323184273e+00 -2.967008284878856816e+00 7.028808871824011817e+01 4.815277947260662827e+00 -4.048573085323184273e+00 4.815277947260662827e+00 8.137050699242632845e+01
3.693421963159926946e+01 -2.304651390800163568e+01 1.131049778880235124e+01 -2.304651390800163568e+01 1.132470874839330577e+01 -1.219373660868685594e+00 1.131049778880235124e+01 -1.219373660868685594e+00 3.544712538768636279e+01
9.623519702542944287e+01 -3.302171542997489606e+00 3.940340899808650210e+00 -3.302171542997489606e+00 6.273873700234689466e+01 2.960676218131048643e+00 3.940340899808650210e+00 2.960676218131048643e+00 7.249954556624801683e+01
6.468726069694926650e+01 8.752351066098444932e+00 -6.327899669924538451e+00 8.752351066098444932e+00 4.435649645947491138e+01 4.409359407601119996e-01 -6.327899669924538451e+00 4.409359407601119996e-01 4.967390274151325258e+01
8.056447752304099197e+01 -7.756686688034838406e-01 4.103646183029213468e+00 -7.756686688034838406e-01 9.119037453140217053e+01 2.708188153090378414e-01 4.103646183029213468e+00 2.708188153090378414e-01 7.893771566942476170e+01
5.079852853936931467e+01 -1.160638389115008628e+01 -1.159800931649495759e+01 -1.160638389115008628e+01 4.931805962311830172e+01 4.969221094810209571e+00 -1.159800931649495759e+01 4.969221094810209571e+00 4.204928594967238098e+01
2.951633703174772450e+01 -4.995014897252769259e+00 -1.217500209715367987e+01 -4.995014897252769259e+00 2.352457770206076049e+01 1.111130238629851696e+01 -1.217500209715367987e+01 1.111130238629851696e+01 2.628394141905819481e+01
1.523323972477783883e+01 1.544084915845530537e+00 2.932049595667487019e+00 1.544084915845530537e+00 1.688889451353299265e+01 8.810177485065818104e+00 2.932049595667487019e+00 8.810177485065818104e+00 2.293440288545238204e+01
3.145426280498861615e+01 9.035768298167358381e+00 -1.407175206963005287e+01 9.035768298167358381e+00 3.794447123168652780e+01 7.038788996969351786e+00 -1.407175206963005287e+01 7.038788996969351786e+00 3.959614629910211647e+01
5.517196629775187233e+01 4.853300231947286214e+00 2.005255583591746493e+00 4.853300231947286214e+00 4.465053993683951461e+01 6.932222493447309120e+00 2.005255583591746493e+00 6.932222493447309120e+00 5.877701852808795024e+01
2.151442758204862571e+01 -1.082244427733197156e+01 -6.054780140836913738e+00 -1.082244427733197156e+01 4.156738953185069363e+01 -6.873046824929137877e+00 -6.054780140836913738e+00 -6.873046824929137877e+00 4.133182981730752914e+01
1.777238002769338010e+01 -6.765427942105327830e+00 -2.847790030902424552e-01 -6.765427942105327830e+00 2.575302704059616232e+01 5.935112312889677888e+00 -2.847790030902424552e-01 5.935112312889677888e+00 1.141877187314547903e+01
4.567232735791207432e+01 7.631875842907702712e+00 -1.117625109202166911e+01 7.631875842907702712e+00 1.593005056164401090e+01 -1.146173250253822440e+00 -1.117625109202166911e+01 -1.146173250253822440e+00 2.710669587519599588e+01
2.145056161316590604e+01 4.274303244840689686e+00 1.133853052618912827e+01 4.274303244840689686e+00 6.525295527366266057e+00 8.641853907171151983e-01 1.133853052618912827e+01 8.641853907171151983e-01 2.358663165641480575e+01
5.233691449981921551e+01 6.320462625735323581e-01 -4.656551507093423581e+00 6.320462625735323581e-01 3.506345861581591095e+01 1.154413445915915304e+01 -4.656551507093423581e+00 1.154413445915915304e+01 2.565294171427512637e+01
2.644266899992486586e+01 -2.130659367570790219e-01 9.576648817733868668e+00 -2.130659367570790219e-01 5.363985059450001813e+01 -5.056808355248966436e+00 9.576648817733868668e+00 -5.056808355248966436e+00 4.918138258769828042e+01
2.560980516472799451e+01 -1.787087666336883096e+00 1.396112857563205578e+00 -1.787087666336883096e+00 4.533308247163269300e+01 -1.392147869755109113e+01 1.396112857563205578e+00 -1.392147869755109113e+01 3.894618911434828590e+01
5.652565126750394597e+01 -1.220551052199310149e+01 1.969504623087320638e+01 -1.220551052199310149e+01 1.877703920701665652e+01 1.213531407735175272e+01 1.969504623087320638e+01 1.213531407735175272e+01 4.074913930573186605e+01
-6.797741694620786923e+00 1.292940676685654289e+01 3.950899326887460372e+00 1.292940676685654289e+01 8.856629458032699631e+00 -2.668805446433311079e+00 3.950899326887460372e+00 -2.668805446433311079e+00 1.047575914081503790e+01
1.130184856329506005e+01 -6.221552268830581767e+00 -2.497639666264974689e+00 -6.221552268830581767e+00 2.026588464966097192e+01 -3.530290984779989483e+00 -2.497639666264974689e+00 -3.530290984779989483e+00 3.190934136146331213e+01
9.846274849706926346e+00 -6.711463404212346440e+00 -5.665747438515892576e+00 -6.711463404212346440e+00 -6.718120270105577774e+00 5.734427257978031101e+00 -5.665747438515892576e+00 5.734427257978031101e+00 1.659781742658161008e+01
4.224073896908151937e+01 -1.426007489107343096e+00 1.462922238705068345e+01 -1.426007489107343096e+00 2.650288604848193685e+01 -1.267149127062448954e+01 1.462922238705068345e+01 -1.267149127062448954e+01 4.044552498398884666e+01
6.303522757384328656e+01 -1.189830900992049578e+01 -2.852557418428751213e+00 -1.189830900992049578e+01 6.326053911862717882e+01 -1.580504763825705616e+01 -2.852557418428751213e+00 -1.580504763825705616e+01 5.523806675387576348e+01
3.965994498538436375e+01 5.819605306328067940e+00 -1.360544549268712089e+01 5.819605306328067940e+00 5.183319523531638140e+01 -5.088644613345642220e+00 -1.360544549268712089e+01 -5.088644613345642220e+00 3.364094699627758445e+01
4.046075652644761078e+01 5.143365824641028539e+00 -6.936936512167198643e+00 5.143365824641028539e+00 5.424570367366646195e+01 -9.646510047028334256e+00 -6.936936512167198643e+00 -9.646510047028334256e+00 5.299502149471226176e+01
2.452978846484425546e+01 -4.480454905121891152e+00 4.024646914853274637e+00 -4.480454905121891152e+00 3.216044005791420091e+01 -1.035380869603838150e+01 4.024646914853274637e+00 -1.035380869603838150e+01 4.476375761187764368e+01
1.690825466774274588e+01 -1.512656933682361604e+01 1.331120233817826293e+00 -1.512656933682361604e+01 2.031117647232540691e+01 -8.970449175499030758e+00 1.331120233817826293e+00 -8.970449175499030758e+00 1.990234963996477902e+01
1.381886744959143343e+01 -1.001670170910244195e+01 6.967893132030846814e-01 -1.001670170910244195e+01 6.697665883823603394e+00 1.446588741120065302e+00 6.967893132030846814e-01 1.446588741120065302e+00 -6.776339402270083190e-02
4.762029818382023194e+01 -4.966128305534939891e+00 -9.510906482684918117e+00 -4.966128305534939891e+00 7.252982515018990739e+01 -8.318452441337120362e+00 -9.510906482684918117e+00 -8.318452441337120362e+00 4.880341350617776186e+01
5.321247711369851885e+01 -1.444738473904230780e+01 -1.284117724904186453e+01 -1.444738473904230780e+01 3.409291109181132384e+01 -8.272895924371967524e+00 -1.284117724904186453e+01 -8.272895924371967524e+00 4.184460960357155557e+01
5.782213938180101565e+01 -1.273244937816684086e+01 -3.984299798916797197e+00 -1.273244937816684086e+01 5.750939494789140127e+01 1.568542717548494725e+00 -3.984299798916797197e+00 1.568542717548494725e+00 5.926031552996945351e+01
5.151426877108355029e+01 1.278824437750522458e+00 6.367093686126641394e+00 1.278824437750522458e+00 5.755763204960607027e+01 3.260938618908901354e+00 6.367093686126641394e+00 3.260938618908901354e+00 5.624211221898605118e+01
2.724686903136869631e+01 5.989469346084145940e+00 -9.315312833502140677e+00 5.989469346084145940e+00 1.954947174411604038e+01 -8.023620261879203852e+00 -9.315312833502140677e+00 -8.023620261879203852e+00 -1.239989062730267877e+00
6.105852010198982782e+01 -8.626925840438303794e+00 1.226899024375286196e+01 -8.626925840438303794e+00 8.878902951400341692e+01 3.234578173291843939e+00 1.226899024375286196e+01 3.234578173291843939e+00 5.679761815619622212e+01
1.447591878366720408e+01 -9.642825799052973323e+00 -4.844565296442229219e+00 -9.642825799052973323e+00 1.178384455293105937e+01 -7.532559438539537133e+00 -4.844565296442229219e+00 -7.532559438539537133e+00 1.218729038614746152e+01
8.993187519259423368e+01 -3.749429789527019441e+00 -9.820818952137807756e+00 -3.749429789527019441e+00 4.005525436980221343e+01 1.652583685171226691e+01 -9.820818952137807756e+00 1.652583685171226691e+01 4.578100530057235318e+01
2.595894543954351263e+01 -5.531999714721073325e+00 -1.629575946020930033e+01 -5.531999714721073325e+00 4.644356488244181236e+01 -3.876770843732275651e+00 -1.629575946020930033e+01 -3.876770843732275651e+00 4.627380820970378039e+01
9.658985687481573734e+01 1.161479812777839449e+01 1.103877597473566929e+01 1.161479812777839449e+01 9.494960250623030618e+01 4.938991117909791839e+00 1.103877597473566929e+01 4.938991117909791839e+00 8.310285419972328214e+01
6.860426027766851398e+00 -8.851767956610120391e-01 -8.371050840096872392e+00 -8.851767956610120391e-01 1.477896778770387609e+00 3.989655477501765635e-01 -8.371050840096872392e+00 3.989655477501765635e-01 6.118076266782430217e+00
6.019418803842024346e+01 3.092880568242823536e+00 3.291885538895256147e+00 3.092880568242823536e+00 5.202819350958732514e+01 -5.806576775579337379e+00 3.291885538895256147e+00 -5.806576775579337379e+00 5.594144748023820313e+01
4.806431649530815520e+01 8.688008043267521074e+00 -1.112841011606286123e+01 8.688008043267521074e+00 4.818406982259267579e+01 8.455602129838831971e+00 -1.112841011606286123e+01 8.455602129838831971e+00 6.444788411957178198e+01
6.933521434797975758e+01 2.117506929150959838e+00 -9.741218322082001890e+00 2.117506929150959838e+00 9.157873786796741911e+01 -6.172277584398641714e+00 -9.741218322082001890e+00 -6.172277584398641714e+00 6.363912401462076218e+01
5.407617563983578890e+01 -1.034829453223514228e+01 5.847302454663203086e+00 -1.034829453223514228e+01 4.846691559239864233e+01 1.518036396814428368e+00 5.847302454663203086e+00 1.518036396814428368e+00 4.736664220288961502e+01
6.651021430239687504e+01 -5.530078627683415071e+00 -1.739166446785325171e+00 -5.530078627683415071e+00 4.156717532635541801e+01 5.778192074630633002e+00 -1.739166446785325171e+00 5.778192074630633002e+00 3.040605844395038915e+01
4.661320971532622082e+01 -1.205716200159784757e+00 -3.186057542399295173e+00 -1.205716200159784757e+00 6.353728576149743645e+01 -1.546783952887944569e+00 -3.186057542399295173e+00 -1.546783952887944569e+00 1.107967393762497750e+02
6.946962588258359972e+01 7.504823008883584556e+00 -1.059040298925312129e+01 7.504823008883584556e+00 7.945350964427254326e+01 -8.222524319726538522e+00 -1.059040298925312129e+01 -8.222524319726538522e+00 8.221580017614537894e+01
5.221314137762851715e+01 1.589790514394413812e+01 -9.259004632881556063e+00 1.589790514394413812e+01 6.867982320482413172e+01 1.475255458403925068e+01 -9.259004632881556063e+00 1.475255458403925068e+01 4.862516357037088000e+01
4.956333912225698413e+01 7.589781649555212617e+00 -1.340919634309293507e+01 7.589781649555212617e+00 7.635195269103864746e+01 1.505107505605950635e+01 -1.340919634309293507e+01 1.505107505605950635e+01 5.315623901379863980e+01
4.678307775528774215e+01 -1.297818286902674245e+01 -4.187343384602025154e+00 -1.297818286902674245e+01 5.099346265347431739e+01 -3.085837011494459770e+00 -4.187343384602025154e+00 -3.085837011494459770e+00 6.576470442261259564e+01
