1.529209999999999958e+01 1.534559999999999924e+01 1.042220000000000013e+01 1.244010000000000060e+00 1.191949999999999932e+01 4.996800000000000352e+00 4.374570000000000292e+00 1.096470000000000056e+01 7.992619999999999614e+00 1.365349999999999930e+01 8.175240000000000506e+00 9.403179999999999872e-01 1.334450000000000003e+01 1.382659999999999911e+01 6.711999999999999744e+00 1.322920000000000051e+01 3.536039999999999850e+00 4.541240000000000165e+00 2.689649999999999874e+00 5.770299999999999763e+00 1.477470000000000061e+00 7.183559999999999945e+00 6.990020000000000344e+00 2.104530000000000012e+00 5.723320000000000185e+00 8.319130000000000136e-01 2.485869999999999802e+00 1.804570000000000007e+00 1.390099999999999980e+01 1.051700000000000079e+00 2.220369999999999955e+00 9.372439999999999216e+00 7.629299999999999748e+00 7.409189999999999721e+00 2.238210000000000033e+00 7.507839999999999847e+00 1.064879999999999960e+01 2.195809999999999818e+00 9.338800000000000434e-01 9.271209999999999951e+00 3.488330000000000042e-01 1.579989999999999917e+01 9.272190000000000154e+00 1.512059999999999960e+01 7.021620000000000417e+00 7.427899999999999781e-02 5.291339999999999932e+00 1.186170000000000080e+01 1.443989999999999974e+01 9.303860000000000241e+00 4.837220000000000297e+00 6.767710000000000115e+00 4.776049999999999685e+00 1.600700000000000012e+00 1.494040000000000035e+01 7.071939999999999671e+00 7.118529999999999802e+00 1.125660000000000061e+01 1.471149999999999913e+01 8.324699999999999989e+00 5.290269999999999584e+00 3.809219999999999828e+00 7.505670000000000286e+00 6.850430000000000241e+00 6.842950000000000088e+00 1.027360000000000007e+01 1.381760000000000055e+01 1.456250000000000000e+01 1.498119999999999941e+01 1.230369999999999919e+01 1.548680000000000057e+01 3.608499999999999819e+00 7.203400000000000247e+00 6.908909999999999663e+00 1.277849999999999930e+01 1.079690000000000083e+01 9.357150000000000745e+00 5.755329999999999835e+00 1.166140000000000043e+01 9.349090000000000344e+00 8.077299999999999258e+00 1.350839999999999996e+01 1.201759999999999984e+01 5.167849999999999611e+00 8.448199999999999932e+00 6.897689999999999877e+00 4.159790000000000099e+00 6.816799999999999748e+00 8.000230000000000397e-01 2.293900000000000106e-02 7.863509999999999778e+00 8.936099999999999710e+00 1.449150000000000027e+01 1.416740000000000066e+01 2.291669999999999874e+00 1.456269999999999953e+01 8.296699999999999520e+00 2.416900000000000048e+00 1.120270000000000010e+01 1.367239999999999966e+01 1.165680000000000049e+01 3.010279999999999845e+00 1.115440000000000076e+01 1.429800000000000004e+01 1.516409999999999947e+01 1.285999999999999943e+01 5.955779999999999852e+00 1.586120000000000019e+01 1.501459999999999972e+01 1.014059999999999917e+01 1.251989999999999936e+00 3.663720000000000088e+00 4.703470000000000262e+00 1.522639999999999993e+01 1.293469999999999942e+01 7.672670000000000101e+00 3.461780000000000079e+00 1.483849999999999980e+01 4.024239999999999817e+00 9.909209999999999852e+00 8.736129999999999285e+00 1.175640000000000018e+00 5.395179999999999865e+00 1.592869999999999919e+01 1.635920000000000041e+00 9.458949999999999747e+00 4.700199999999999712e+00 1.441960000000000086e+01 3.333899999999999864e+00 1.056179999999999986e+01 5.460860000000000269e+00 9.284639999999999560e-01 1.432290000000000063e+01 7.086820000000000341e+00 1.152529999999999966e+01 1.381530000000000058e+01 3.451110000000000011e-01 1.261989999999999945e+01 1.223569999999999958e+01 7.592310000000000336e+00 1.268580000000000041e+01 8.235680000000000334e+00 1.195519999999999960e+01 1.064990000000000059e+01 5.551779999999999937e+00 1.498750000000000071e+01 9.648809999999999221e+00 1.098499999999999943e+01 2.364100000000000090e+00 1.069699999999999918e+01 1.231160000000000032e+00 3.756720000000000059e+00 1.901289999999999925e+00 1.544170000000000087e+01 2.211349999999999927e+00 9.909989999999999633e-01 1.079390000000000072e+01 6.194130000000000358e+00 1.104100000000000037e+01 1.048610000000000042e+01 6.664769999999999861e+00 5.673849999999999838e+00 8.545019999999999172e+00 1.245250000000000057e+01 6.819079999999999586e+00 2.589449999999999807e+00 1.380010000000000048e+01 3.611520000000000064e+00 1.993460000000000010e+00 1.416380000000000017e+01 1.455419999999999980e+01 3.164800000000000058e+00 1.953419999999999879e-01 1.346349999999999980e+01 1.562119999999999997e+01 1.297400000000000020e+01 1.395369999999999955e+01 6.726869999999999905e+00 8.578219999999999956e+00 5.625829999999999664e+00 1.521519999999999939e+01 1.275050000000000061e+01 9.375619999999999621e+00 1.283009999999999984e+01 9.788999999999999702e+00 1.361090000000000089e+01 1.218880000000000052e+01 5.435249999999999915e+00 3.071989999999999998e+00 1.127940000000000076e+01 1.181900000000000084e+01 1.369100000000000072e+01 2.418050000000000033e+00 1.286529999999999951e+00 8.702600000000000335e+00 4.664670000000000094e+00 2.145779999999999799e+00 1.486930000000000085e+01 9.053320000000000256e-01 1.145129999999999981e+01 7.625980000000000203e+00 7.685780000000000278e+00 4.247510000000000119e+00 1.324820000000000064e+01 4.542910000000000004e+00 1.187359999999999971e+01 2.852669999999999817e+00 3.041999999999999815e+00 4.638539999999999885e+00 6.268790000000000084e+00 1.271679999999999922e+01 5.497279999999999944e+00 6.285639999999999894e+00 1.335970000000000102e+00 9.316589999999999705e+00 2.965169999999999750e-01 1.561120000000000019e+01 1.545829999999999949e+01 6.447320000000000384e+00 1.469909999999999961e+01 8.511210000000000164e+00 9.140670000000000073e+00 1.237989999999999924e+01 4.299610000000000376e+00 1.019430000000000014e+01 1.145979999999999954e+01 1.576980000000000004e+01 1.167050000000000054e+01 7.649339999999999584e+00 7.935539999999999594e+00 8.002610000000000667e+00 1.516119999999999912e+00 6.872349999999999959e+00 7.175600000000000200e+00 1.012889999999999979e+01 7.709520000000000373e+00 9.093310000000000670e+00 2.169249999999999901e+00 1.551350000000000051e+01 7.276180000000000092e+00 4.660379999999999967e+00 9.644379999999999953e+00 4.213129999999999598e+00 4.470329999999999693e+00 1.476919999999999900e-01 1.145809999999999995e+01 5.267389999999999795e+00 3.379080000000000084e+00 3.234659999999999869e+00 1.025510000000000055e+01 1.381380000000000052e+01 1.061919999999999931e+01 5.962270000000000181e+00 4.548739999999999561e+00 9.709920000000000329e+00 1.024579999999999913e+01 1.165150000000000041e+01 4.831319999999999837e+00 1.254470000000000063e+01 3.522790000000000088e+00 1.562149999999999928e+01 3.743710000000000093e+00 1.034440000000000026e+01 9.094069999999999654e-01 1.936479999999999979e+00 5.857280000000000264e+00 1.352480000000000082e+01 6.328210000000000335e+00 8.957979999999999166e+00 8.013270000000000115e-01 1.355739999999999945e+01 1.077420000000000044e+01 9.168839999999999435e+00 4.568570000000000242e+00 2.309559999999999835e+00 1.012920000000000087e+01 1.389010000000000034e+01 9.558609999999999607e-01 4.973700000000000010e+00 3.921679999999999833e+00 1.350019999999999953e+01 8.160439999999999472e+00 9.414829999999999588e-01 9.428440000000000154e+00 4.303659999999999819e+00 6.797690000000000232e+00 1.165900000000000070e+01 8.423159999999999314e+00 8.940839999999999677e+00 1.078049999999999997e+01 1.299390000000000001e+01 1.158440000000000047e+01 1.313010000000000055e+01 3.269470000000000098e+00 1.563579999999999970e+01 1.573140000000000072e+01 5.664130000000000553e-01 1.163880000000000026e+00 8.328250000000000597e+00 1.395560000000000045e+01 1.549230000000000018e+01 1.013530000000000086e+01 1.361170000000000080e+01 1.022039999999999971e+01 1.381599999999999939e+00 3.337369999999999948e+00 8.329140000000000654e+00 4.299080000000000013e+00 1.578739999999999988e+01 2.846270000000000078e+00 7.800709999999999589e+00 3.383919999999999817e+00 7.507139999999999702e+00 6.961789999999999923e-01 9.637499999999999289e+00 2.737750000000000128e+00 3.754440000000000222e+00 3.779269999999999907e+00 4.745700000000000252e+00 1.386169999999999902e+00 1.127089999999999925e+01 6.848989999999999689e+00 1.548820000000000086e+01 9.344310000000000116e+00 1.297610000000000063e+01 3.049570000000000114e+00 1.436149999999999949e+01 1.317450000000000010e+01 4.205860000000000376e+00 5.803980000000000139e+00 1.560050000000000026e+01 1.153200000000000003e+01 1.391249999999999964e+01 1.564160000000000039e+01 3.425389999999999824e-01 9.556369999999999365e+00 5.942160000000000331e+00 1.655219999999999914e+00 1.510699999999999932e+01 1.101440000000000019e+01 6.890049999999999564e+00 1.219050000000000011e+01 6.823800000000000310e+00 7.564079999999999693e+00 1.153800000000000026e+01 5.111999999999999877e-01 9.776790000000000092e+00 1.250029999999999974e+00 5.095180000000000042e+00 9.562099999999999156e+00 1.306449999999999889e+00 1.378969999999999985e+01 6.830020000000000202e+00 1.026959999999999956e-01 1.082240000000000002e+01 9.601990000000000691e+00 7.136459999999999582e+00 9.344419999999999504e+00 1.296959999999999980e+01 1.041660000000000075e+01 8.235559999999999548e+00 3.695219999999999949e+00 1.444999999999999929e+01 1.484570000000000078e+01 2.604010000000000158e+00 1.576089999999999947e+01 7.703030000000000044e+00 1.093820000000000014e+00 1.093709999999999916e+01 1.620139999999999914e+00 4.961769999999999570e+00 1.401329999999999965e+00 3.723300000000000054e+00 1.517249999999999988e+00 1.416660000000000075e+01 1.139550000000000018e+01 5.649740000000000428e+00 6.397859999999999658e+00 8.080640000000000711e+00 6.463519999999999932e+00 2.968539999999999957e+00 9.250249999999999417e+00 1.185640000000000072e+01 5.716910000000000380e+00 7.075789999999999580e+00 8.179439999999999600e+00 1.741870000000000029e+00 7.070100000000000051e+00 5.557830000000000048e+00 1.323440000000000083e+01 9.808199999999999363e+00 1.594859999999999944e+00 1.051409999999999983e-01 1.952080000000000037e+00 7.249270000000000103e+00 1.355930000000000035e+01 2.244039999999999924e-01 6.385629999999999917e+00 6.999710000000000321e+00 1.323010000000000019e+01 4.692210000000000214e+00 1.590130000000000088e+01 3.137289999999999801e-01 1.222850000000000037e+01 8.683920000000000528e+00 4.858249999999999957e+00 1.096909999999999918e+01 3.965279999999999916e+00 7.358620000000000161e+00 1.181550000000000011e+01 7.204170000000000407e+00 1.009529999999999994e+01 1.563519999999999932e+01 7.961219999999999963e+00 1.414279999999999937e+01 9.468439999999999301e+00 4.041759999999999797e-01 9.237989999999999924e+00 5.170130000000000337e+00 5.738010000000000055e-01 7.838000000000000078e+00 1.739249999999999963e+00 8.711809999999999832e+00 5.000500000000000084e-02 3.101240000000000219e+00 1.818119999999999958e+00 1.301980000000000004e+01 4.000630000000000130e+00 3.113859999999999850e+00 1.419260000000000055e+01 1.259440000000000026e+01 4.137439999999999785e+00 1.580059999999999931e+01 4.373940000000000161e+00 1.084130000000000038e+01 9.987970000000000681e+00 1.509779999999999944e+01 1.546390000000000065e+01 1.512139999999999951e+01 8.328039999999999665e+00 7.816519999999999690e+00 7.545010000000000439e+00 7.919880000000000031e+00 4.618330000000000268e+00 7.534480000000000066e-01 1.480690000000000062e+01 1.046820000000000084e+00 5.192590000000000039e+00 3.551590000000000025e+00 1.009399999999999942e+01 1.470819999999999972e+01 1.530300000000000082e+01 1.568679999999999986e+01 5.282390000000000363e+00 1.310149999999999970e+01 3.055890000000000217e+00 2.508119999999999905e+00 1.538310000000000066e+01 1.452829999999999977e+01 8.323240000000000194e+00 2.006440000000000001e+00 6.346210000000000129e+00 6.385139999999999816e+00 6.018769999999999953e+00 1.253910000000000080e+00 1.352940000000000076e+01 7.004809999999999981e+00 1.262809999999999988e+01 3.383370000000000211e+00 1.566399999999999970e+01 1.219669999999999987e+01 1.539550000000000018e+01 9.651030000000000442e-01 1.154400000000000093e+00 1.241590000000000060e+01 1.477740000000000009e+01 1.527210000000000001e+01 3.144530000000000047e+00 5.111869999999999692e+00 1.401030000000000086e+01 4.178950000000000387e+00 4.036570000000000213e+00 6.768329999999999735e+00 1.242350000000000065e+01 1.588139999999999930e+01 1.269309999999999938e+01 1.363449999999999918e+01 2.209970000000000212e+00 4.653999999999999915e+00 2.141220000000000123e+00 1.329020000000000046e+01 1.571359999999999957e+01 7.524230000000000196e+00 1.184009999999999962e+01 9.549469999999999459e+00 5.493710000000000093e+00 1.542469999999999963e+01 2.586149999999999949e+00 1.068549999999999933e+01 2.038229999999999986e+00 2.309839999999999893e+00 2.873479999999999812e+00 1.433970000000000056e+01 7.748039999999999594e+00 1.459890000000000043e+01 1.568759999999999977e+01 1.163969999999999949e+01 6.460169999999999746e+00 5.562940000000000218e+00 1.045110000000000028e+01 1.561260000000000048e+01 6.550159999999999982e+00 1.181589999999999918e+01 1.533419999999999916e+01 1.388969999999999949e+01 1.027880000000000038e+01 5.496730000000000338e+00 2.019979999999999887e+00 3.372660000000000213e+00 9.338649999999999451e+00 6.215980000000000061e+00 5.115520000000000067e+00 1.058189999999999920e+01 1.472639999999999993e+01 1.164170000000000016e+01 1.368360000000000021e+01 6.506400000000000183e+00 6.815970000000000084e+00 6.329830000000000290e+00 1.035819999999999963e+00 1.246310000000000029e+00 5.883559999999999901e-01 9.307919999999999305e+00 1.321790000000000020e+01 6.917860000000000120e+00 7.366399999999999615e+00 9.018240000000000478e+00 1.153669999999999973e+01 5.005969999999999587e+00 1.093360000000000021e+01 1.251449999999999996e+01 6.388080000000000425e+00 3.950279999999999792e+00 1.582189999999999985e+00 8.230309999999999349e+00 3.926860000000000017e+00 1.150200000000000067e+01 1.080650000000000110e+00 1.104940000000000033e+01 1.190090000000000003e+01 1.431739999999999924e+01 2.799900000000000055e+00 7.952589999999999826e+00 7.781469999999999665e+00 1.370359999999999978e+01 1.031530000000000058e+01 1.131109999999999971e+01 1.281639999999999979e+01 1.128770000000000051e+00 5.023200000000000109e+00 1.286810000000000009e+01 7.731209999999999471e-01 8.515309999999999491e+00 1.536309999999999931e+01 1.112340000000000018e+01 5.343379999999999797e+00 2.177350000000000119e+00 3.650339999999999918e+00 1.762010000000000076e+00 9.202270000000000394e+00 9.064470000000000027e+00 8.019330000000000069e+00 8.196479999999999322e+00 5.150420000000000442e+00 1.415269999999999939e+01 8.513909999999999201e+00 2.798620000000000108e+00 5.969109999999999694e-01 7.476140000000000008e+00 1.079149999999999920e+01 7.929929999999999701e+00 5.377250000000000085e+00 1.115700000000000003e+01 3.962729999999999864e-01 3.858940000000000037e+00 1.428550000000000075e+01 1.349929999999999986e+01 1.413920000000000066e+01 4.719140000000000335e+00 3.596270000000000078e+00 1.525290000000000035e+01 1.121640000000000015e+01 1.392040000000000077e+01 9.407560000000000144e+00 2.886909999999999865e+00 6.605940000000000367e+00 2.687289999999999957e+00 1.310710000000000086e+01 8.021039999999999281e+00 2.171279999999999877e+00 1.012590000000000101e+00 9.967510000000000758e+00 7.799520000000000231e+00 5.021989999999999732e+00 1.505940000000000012e+01 1.080540000000000056e+01 1.386969999999999992e+01 1.211790000000000056e+01 9.286739999999999995e+00 1.573469999999999924e+00 1.057199999999999918e+01 4.568929999999999936e+00 1.465779999999999994e+01 1.417450000000000010e+01 6.749590000000000423e+00 3.901530000000000165e+00 8.579539999999999722e+00 3.407709999999999795e+00 4.130810000000000315e+00 4.059879999999999711e+00 3.493749999999999911e+00 1.428640000000000043e+01 9.797180000000000888e+00 9.685610000000000497e+00 2.490629999999999900e+00 1.366530000000000022e+01 2.178259999999999863e+00 9.112550000000000594e+00 1.547900000000000054e+00 4.132780000000000342e+00 6.987359999999999793e+00 9.320130000000000692e+00 1.556390000000000029e+01 1.362689999999999912e+01 4.762430000000000163e+00 9.893499999999999517e+00 1.137320000000000064e+01 8.079990000000000450e+00 8.778890000000000526e+00 9.060810000000000031e+00 1.368740000000000023e+01 7.097979999999999734e+00 1.183479999999999954e+01 3.097440000000000193e+00 9.904420000000000002e+00 1.068619999999999948e+01 1.028229999999999933e+01 4.763919999999999710e+00 8.366470000000000296e-01 1.368890000000000029e+01 1.380049999999999955e+01 1.489540000000000086e+00 1.949859999999999927e+00 9.397500000000000853e+00 2.212919999999999998e+00 7.964419999999999611e+00 7.161900000000000155e+00 3.510120000000000129e+00 9.765689999999999316e+00 7.768720000000000070e+00 2.604070000000000107e+00 4.035739999999999661e+00 5.098259999999999792e+00 1.238930000000000042e+01 1.444309999999999938e+01 7.585560000000000080e+00 1.377800000000000047e+01 1.060469999999999935e+01 5.073570000000000135e+00 8.774350000000000094e+00 1.568389999999999951e+01 5.722139999999999560e+00 7.984950000000000436e+00 1.135500000000000043e+01 1.185960000000000036e+01 5.521670000000000300e+00 8.948639999999999262e+00 5.159939999999999749e+00 3.662640000000000118e+00 1.213339999999999996e+01 7.911200000000000010e+00 1.102759999999999962e+01 1.309370000000000012e+01 1.442929999999999957e+01 1.569769999999999932e+01 9.036250000000000782e+00 4.913770000000000415e+00 7.571299999999999697e-01 1.219069999999999965e+01 6.417259999999999742e+00 2.540010000000000101e+00 9.942059999999999675e+00 5.708940000000000126e-01 1.432990000000000030e+01 1.531269999999999909e+00 1.334280000000000044e+01 7.021840000000000082e+00 8.670909999999999229e+00 6.970049999999999635e+00 1.399910000000000032e+01 7.458440000000000403e+00 1.018839999999999968e+01 1.371610000000000085e+01 8.232979999999999521e+00 4.483130000000000059e+00 1.582219999999999960e+00 1.310960000000000036e+01 4.457589999999999719e+00 1.883189999999999920e+00 3.214609999999999967e+00 2.919719999999999871e+00 1.076370000000000005e+01 1.281339999999999968e+01 4.301330000000000098e+00 8.339339999999999975e+00 1.001829999999999998e+01 1.383280000000000065e+01 9.659430000000000405e+00 2.463060000000000027e+00 1.079659999999999975e+01 6.337180000000000035e+00 4.308709999999999596e+00 2.882120000000000015e+00 1.156099999999999994e+01 6.371069999999999567e+00 8.294899999999999496e-02 1.503200000000000003e+01 2.682560000000000056e+00 9.513070000000000803e+00 6.201120000000000410e+00 2.860669999999999824e+00 7.176709999999999923e+00 1.288499999999999979e+01 1.266200000000000081e+01 6.205449999999999910e+00 1.005789999999999962e+00 1.525880000000000081e+01 6.326270000000000060e+00 3.508010000000000073e+00 5.572330000000000005e+00 3.603259999999999796e-01 1.410169999999999924e+01 9.638040000000000163e+00 1.354739999999999966e+01 1.208769999999999989e+01 8.669700000000000628e+00 1.334440000000000026e+01 1.446669999999999945e+01 1.071110000000000007e+01 2.448949999999999960e+00 9.934419999999999362e+00 6.643329999999999735e+00 1.001280000000000037e+01 1.218239999999999945e+01 1.190879999999999939e+01 2.751520000000000188e+00 4.018180000000000085e+00 1.153069999999999951e+01 1.606030000000000069e+00 1.161720000000000041e+01 2.972240000000000215e+00 2.557769999999999766e-01 2.428189999999999849e+00 5.584740000000000038e+00 7.061410000000000409e+00 1.247139999999999915e+01 1.035319999999999929e+01 8.432620000000000005e+00 7.894969999999999821e+00 1.890999999999999903e-01 1.558120000000000083e+01 7.395970000000000155e+00 3.978359999999999896e+00 7.313709999999999933e-01 1.220079999999999920e+01 1.096049999999999969e+01 1.400309999999999988e+01 1.487229999999999919e+01 6.062779999999999836e-01 6.010720000000000063e+00 5.971470000000000056e+00 4.852430000000000021e+00 8.282189999999999941e+00 1.346969999999999956e+01 1.579780000000000051e+01 4.252399999999999736e+00 5.621199999999999974e+00 1.073039999999999949e+01 8.413420000000000343e+00 3.643969999999999931e+00 1.467890000000000050e+01 4.153509999999999813e+00 7.742119999999999891e+00 3.536659999999999915e+00 1.195650000000000013e+01