-7.786730054889954044e+04
-7.790309932734664471e+04
-7.788753003396863642e+04
-7.788999055083034909e+04
-7.787934759092076274e+04
-7.789524428521629306e+04
-7.786798004519189999e+04
-7.790361531122172892e+04
-7.789339039285667241e+04
-7.790989467084626085e+04
-7.792032880143313378e+04
-7.786528984557863441e+04
-7.787040142086577544e+04
-7.786215642459483934e+04
-7.787322039055601635e+04
-7.790584201333085366e+04
-7.789614863284135936e+04
-7.789771747581784439e+04
-7.790625360939746315e+04
-7.788844845942150278e+04
-7.789081401142659888e+04
-7.789502197067084489e+04
-7.791309018658679270e+04
-7.788549711179433507e+04
-7.786392806006803585e+04
-7.791232604062964674e+04
-7.786918707545079815e+04
-7.791555392986924562e+04
-7.789295212343221647e+04
-7.789004136279167142e+04
-7.792224314651699387e+04
-7.791704740619544464e+04
-7.790809083951560024e+04
-7.789787533954589162e+04
-7.792023181029788975e+04
-7.786078331081726355e+04
-7.789491490838868776e+04
-7.789592562622814148e+04
-7.788518393461930100e+04
-7.790559822324423294e+04
-7.790281333256573998e+04
-7.787789719526639965e+04
-7.791936400603718357e+04
-7.791386693062997074e+04
-7.787554548723532935e+04
-7.791563324100589671e+04
-7.787542839781059592e+04
-7.788132933083595708e+04
-7.790906151505370508e+04
-7.791233695762541902e+04
-7.787784750263535534e+04
-7.791766019823103852e+04
-7.790197541137586813e+04
-7.789819424558982428e+04
-7.791900666114177147e+04
-7.789505577011602873e+04
-7.791931678822911636e+04
-7.790245740169510827e+04
-7.791369134894166200e+04
-7.787494759560035891e+04
-7.788342526949418243e+04
-7.790745100626938802e+04
-7.789052190200860787e+04
-7.791692982247380132e+04
-7.788309208615293028e+04
-7.786508151101815747e+04
-7.787899225692379696e+04
-7.788797259648230101e+04
-7.787417707045776478e+04
-7.792147405793699727e+04
-7.788977152103751723e+04
-7.788225244110463245e+04
-7.788741870613895298e+04
-7.787526277377070801e+04
-7.791059972392491181e+04
-7.789273017722438090e+04
-7.791896298974132515e+04
-7.787055825189485040e+04
-7.787933664774686622e+04
-7.790055612913591904e+04
-7.786436069541399775e+04
-7.787257458489852434e+04
-7.790474163071531802e+04
-7.791127917902424815e+04
-7.788657405025541084e+04
-7.789789237443057937e+04
-7.786969453703974432e+04
-7.787048441584043030e+04
-7.792028492231464770e+04
-7.791825500269800250e+04
-7.787439612739691802e+04
-7.788662923145575041e+04
-7.789931351151326089e+04
-7.790217242918882403e+04
-7.787733434048615163e+04
-7.788626594632263004e+04
-7.790077463356414228e+04
-7.788012620997516206e+04
-7.792162087557360064e+04
-7.791137941641832003e+04
-7.788686453675379744e+04
-7.791069202735504950e+04
-7.787200116746310960e+04
-7.789053207438814570e+04
-7.789478656696880353e+04
-7.791042733512612176e+04
-7.788713272363932629e+04
-7.790925726242086967e+04
-7.788943612892206875e+04
-7.791846173532860121e+04
-7.788973872690979624e+04
-7.789182295976240130e+04
-7.791162325448494812e+04
-7.786702168804800021e+04
-7.788916539471464057e+04
-7.789182371432142099e+04
-7.789774439690676809e+04
-7.788983117155141372e+04
-7.786879978073117672e+04
-7.786770056311975350e+04
-7.788142168251585099e+04
-7.786804817910039856e+04
-7.789895091561779554e+04
-7.786068380088341655e+04
-7.789660961982877052e+04
-7.788192777038621716e+04
-7.791661615038035961e+04
-7.791399925936438376e+04
-7.789003084331439459e+04
-7.791505495525895094e+04
-7.790235393188668240e+04
-7.790759909095827607e+04
-7.791438261820909975e+04
-7.790895218249289610e+04
-7.786998790794175875e+04
-7.789804325285767845e+04
-7.787474476031071390e+04
-7.789414398511912441e+04
-7.791577862968565023e+04
-7.790681966060027480e+04
-7.790764928810377023e+04
-7.787532558597855677e+04
-7.791487917050727992e+04
-7.787160556313666166e+04
-7.789073160161085252e+04
-7.787897749891126296e+04
-7.787402497147259419e+04
-7.790795019364982727e+04
-7.791578617991213105e+04
-7.788204507335415110e+04
-7.790169601423322456e+04
-7.790028844484445290e+04
-7.789966548829406383e+04
-7.787173069887726160e+04
-7.790495305679336889e+04
-7.787531007510534255e+04
-7.786815424484235700e+04
-7.789318504908260365e+04
-7.787655432708674925e+04
-7.787435692379661486e+04
-7.791555946617308655e+04
-7.787522525578207569e+04
-7.791391000200530107e+04
-7.787610287927543686e+04
-7.788445096056106559e+04
-7.787989499057197827e+04
-7.789941510157278390e+04
-7.790897340619053284e+04
-7.790112173413588607e+04
-7.787944076459313510e+04
-7.791828380134963663e+04
-7.789630274744726194e+04
-7.786900576676480705e+04
-7.790714894777649897e+04
-7.787743519925950386e+04
-7.787172162193318945e+04
-7.788395770746364724e+04
-7.785884849278275215e+04
-7.791028878840690595e+04
-7.787830263267582632e+04
