-2.811394581367770762e+00 -2.991196982505492041e+00 2.739475677795381259e+00 5.775315242401120319e-02 -8.459629439973297416e-01 3.551993709106108899e+00 -2.076671967500627325e+00 -2.303757473903504938e+00 4.469359279118365058e-01 4.190415131886287559e-01 -1.968477366427064057e+00 -2.937695920841098207e+00 -1.063436637547532593e+00 1.980137834447995626e+00 3.210680250452670137e+00 2.066858580143445534e-01 9.639987003445126268e-01 -8.688519346723918568e-01 2.116910763742201773e+00 1.017625231853548584e+00 8.343081324038204016e-01 -2.117121594218855041e+00 -5.822738729910487798e+00 -1.878058859859391472e+00 4.758927225491051960e-01 1.462781442010029576e+00 -3.088368234974155913e-01 -8.974456895132777445e-01 5.228127880178788933e-01 -3.482260243401463562e+00 9.210772148426981110e-01 -2.255579624664260763e+00 -9.374006359423829871e-01 5.474676124900781371e-01 -8.013234472211311354e-01 -2.868402113813375287e+00 2.235937937550328325e+00 6.327716802265552776e-01 8.010807350626428791e-01 4.880987787059608007e-01 -2.443044942297304178e+00 -1.400968003138087781e+00 -9.724432322654749106e-01 -1.583559022995050247e+00 -3.364687799882242203e+00 1.883256602439898231e+00 2.105219442480784405e-03 -5.572558030341967505e-02 -3.327260248069598525e+00 3.602463439892772623e+00 -8.156722609297252513e-02 -2.300731799453198168e+00 -1.415782186557342559e+00 2.897723490909051236e+00 4.001490455978266580e-01 -1.893996615453004129e+00 5.915712913231733205e-01 -5.190769748157237906e-01 -6.772790222893396717e-01 -5.519500741119894860e-01 1.418004134092994306e+00 3.368028177385503863e+00 -6.693733936355292791e-01 -1.034791460639170602e+00 5.537621877698550854e-01 9.557151194947512973e-01 -1.734923478156339183e+00 -2.029929308164646784e+00 -1.647958991861051270e-01 -4.045568937998297088e+00 1.549355634813172067e+00 6.919353399614421030e-03 1.087089245924618197e+00 4.940092311416895976e-01 5.014551465122615292e-01 -6.424966216276779551e-01 -2.128929129352768790e+00 7.856818827361823354e-01 1.327779488719707801e-01 -2.027756211593097824e+00 3.129408701247686331e+00 2.205667309089039740e+00 -2.021169044749380195e+00 8.476722135202426900e-01 -1.414277062642310456e+00 1.218715854705794133e+00 4.574948838253578565e+00 -4.538920995117640800e+00 4.206735467661924410e+00 -1.132926876873015409e+00 -2.766027976557456913e+00 -1.044514859378269156e+00 -7.668058702069726618e-01 -2.209386667229602530e+00 7.858952843162091417e-01 -1.490876917017069703e+00 1.843228636674976828e+00 -2.333697972691596012e-01 1.410890405278319548e+00 -2.906781488095005805e+00 2.546689718840562833e+00 1.431745653184693046e+00 -9.923034631661813432e-01 -4.388899170138158556e-01 -2.353941812215676332e+00 -2.985992555056212971e+00 -5.203974935085158293e-01 1.810935064079169265e+00 1.356111505237139081e+00 -2.145707635749619424e+00 1.768958716177569501e+00 1.981844532867534703e+00 -4.131356887389727728e-01 -5.737782275350150618e-01 2.696126874912838645e+00 -7.444933209083200998e-01 2.747447126695561348e+00 -6.219355079472690395e-01 -8.659748699970915009e-01 2.287289042573537490e+00 3.339899278034604291e-01 -3.550166168827999957e+00 1.209653229533766527e+00 2.171813076745325866e+00 3.281319772986248218e+00 3.538712417518323217e-01 4.464456699205172185e+00 1.961798154082563805e-01 -2.630088598977041503e+00 1.489299287986896259e+00 2.650981899213347592e+00 -1.922549232639908512e+00 1.095828940512894700e+00 -7.159391610593910382e-01 -1.834001460887024759e+00 -1.167185800887768021e+00 1.448302016250045954e+00 -8.685444307088835414e-01 -8.877953101099957944e-01 -5.051523417417419282e+00 -2.100303492830048135e+00 2.490318791590314884e+00 1.899709092928948628e+00 2.136722657899480904e+00 3.788746564194535260e+00 -1.648776088513250304e+00 -5.765785190635732249e+00 6.714410749687523827e-01 -3.607634957218867289e+00 -1.044179073277648584e+00 -1.070587904471465457e+00 1.328685545548640601e+00 6.130034948266311901e-01 -3.684185446408849707e-01 4.701105681717297813e+00 -2.699053818993590870e+00 1.533266698341179124e+00 -4.364422266019427621e-01 -8.585742060458987357e-01 9.905823665677490064e-01 -1.652937162213434563e+00 9.373949795149607578e-01 1.425813603480624137e+00 1.194738773082932859e+00 -2.947042395825595573e+00 -1.984858894462996792e+00 -1.529631672391277841e-01 6.854870126999107471e-02 -3.993438788652823312e+00 -3.645260483991294986e+00 2.028158846381437730e+00 9.523372038822314201e-01 1.339521717827926839e+00 3.827857674496354612e+00 -3.577880606315040901e-01 -9.386301375757420962e-01 1.313021355354002107e-01 1.550560453854142207e+00 -1.829375017476179588e+00 -9.285570687778045285e-01 -1.088362970536006946e+00 5.588293182989723107e-02 2.163259530041313494e-01 -2.470548035087016814e+00 9.082587218621995806e-01 6.052963553532795249e-01 1.485886919589167188e-01 -5.354151026267069291e+00 -1.777249496116777960e+00 -3.537588845343965449e+00 2.596377834201586854e+00 1.583615073048599386e+00 4.200791076661659851e+00 2.347670891086938383e+00 -5.286574202072380491e-01 3.238671338662733046e+00 2.693145423440560737e+00 7.693687460499927244e-01 -3.286912951265648086e+00 4.908894543079009853e-01 -3.071548076702649288e-01 7.375672826399337634e-02 3.768620481204976169e-01 -8.701194886356833358e-01 2.607011403535016036e+00 -6.724726016423273611e-01 -9.070338482149135906e-02 -5.459810005193375115e-01 5.274608286970640103e-01 1.067790544000753128e+00 2.484946728201063326e+00 -3.481423092142948428e-01 -7.356646661433095813e-02 -3.004288012443615541e-01 7.100482490093030785e-01 5.119277647744902016e-01 -2.898870203013773406e+00 -1.876732170518502274e+00 -1.417012202411376265e+00 -3.584798417052630803e+00 2.552925672963416437e-01 1.954835606146269278e+00 -8.376680502927236205e-01 -5.934394550345882813e-01 -2.628243575195990944e-01 1.069175340277890740e+00 3.258794336328244334e+00 9.224892648155980091e-01 1.286916942799645414e+00 1.078052331786328644e+00 9.015861943864714734e-01 8.561542835504627469e-01 -5.319015356001845163e+00 -1.992383485596807891e+00 -2.173251351972638190e+00 -2.508090772330807905e+00 -1.020167024648903409e+00 -2.232807876303044559e+00 -8.393369020706002104e+00 -2.872295278542007502e+00 1.269539369316695643e+00 -4.236977813986101182e+00 -3.859442136781663368e-01 -1.081488868555771532e+00 -2.195223487184597921e+00 -3.198375463926259599e-01 2.151544040408182479e+00 1.802310040701365024e+00 -1.160319412217654333e+00 4.411746508938564126e+00 3.530913232544188762e+00 -2.152534429427776175e+00 3.160590528744655625e-01 3.650453084365054668e+00 -4.613959161303143652e+00 -1.446410198387591550e-01 -3.941881995359708957e-01 2.039642422490250517e+00 4.586749174298045517e+00 3.243082323610852580e+00 -4.403459328544080620e+00 4.275549506800093269e+00 -6.954443818460265270e-01 3.420605698718023557e+00 3.070266124560464327e+00 -8.843613444439265558e-01 8.671925445549308886e-01 -7.539205285387547972e-01 8.329212792439839586e-01 4.636203319252052424e-01 -4.407010022303319841e-01 1.281394212752687833e+00 -1.289808919874513959e+00 -1.374542202662003776e+00 -1.223495535877718643e+00 5.003531716062440404e-01 1.896225762078102450e+00 -1.672166958566881245e+00 1.231755976797115570e+00 -4.155299002006704878e-01 2.007510829406993214e+00 -1.154462952952775234e+00 1.452215749805668976e-01 -3.955658995677966860e+00 1.686995025944354687e+00 -6.896465437380707719e-01 -2.704581177026621486e+00 -6.590560700170791653e-02 1.612257678853587839e+00 4.253355742477310741e+00 -4.388228626378267272e+00 1.042025002871065364e+00 -3.825542138797895397e+00 1.207338722276656978e-01 1.501522313426018718e+00 -1.868405909352735428e+00 1.637718801343815533e+00 -1.904534539740927457e-01 -1.364347263564147372e+00 1.668274822279598002e+00 -2.402941900313867229e+00 2.198615286755336129e+00 -2.968966194294127003e-01 1.158826115378141619e+00 -3.716074327333618310e+00 4.008906546549702021e+00 -1.968904683807791989e-01 2.535863830974771638e-01 2.285608055187736409e-02 -2.457056941463928279e+00 -1.266885476414242491e-02 -4.759066065073238594e-01 -6.954459245080507612e-01 1.253994992539277042e+00 -2.555985285978257943e-02 4.591819904371886807e+00 8.488821747679606844e-01 2.227971630856896201e+00 1.064796237011606861e+00 4.768254160089908211e+00 -1.646113968080000989e+00 -1.874524621161743343e-01 8.997221444404548407e-01 -3.645983992480686386e-01 8.309862668448497747e-01 -1.518196433025892134e+00 8.664505241212475672e-01 -3.158651916800798293e-02 1.145409583752893479e+00 -1.416100489155020847e+00 7.810179012160796130e-01 -1.059591809562327791e+00 -4.306006797366320749e-01 1.993227321724094503e-01 -1.293646548770271965e+00 -8.832840521302975922e-01 1.162061591863752019e+00 -2.518771649966315529e+00 -2.291357042331589322e-01 1.569747055670908997e+00 2.200227882791394141e+00 1.087530961484239889e+00 1.319985960172995743e+00 -1.312789956050358642e+00 5.827863453155177620e-01 -5.682783803080845964e+00 2.550043980302043156e+00 2.554013763911215484e+00 3.176644498210764445e-01 -1.079730748068756130e+00 -3.402161631555614907e+00 3.699069049619197358e+00 7.646421324517038265e+00 1.929666560999306446e+00 -2.013753468398618907e+00 1.309556022226772587e+00 -5.472603815581484454e+00 -4.300559657758553200e+00 -3.994697086643968831e+00 9.213991169850999086e-01 2.284980705964524961e-01 2.122960055760117370e+00 2.583434385597120908e-01 4.300838879584949898e-02 -4.698897103919189716e-02 -2.103039146819788208e+00 2.511973138425270813e-01 2.097140007238904147e+00 8.556662881301125845e-01 -2.540246533785778915e+00 -1.005672172268676778e+00 -1.477757090721159849e-01 -3.143407330676766698e+00 -3.582473625382025961e+00 -2.902868268760057546e+00 -2.660221416297493757e+00 2.459943776332048859e+00 -1.193507214566875030e+00 1.815338335717167073e+00 -1.462142779931973502e+00 -7.509164513567878618e-01 -1.848034028880639390e+00 -8.412855927396831746e-01 1.454760627925072214e+00 -1.020219989378404080e+00 6.682510041687234725e+00 -2.011671388886503209e+00 1.018049463910228214e+00 -4.923097318115970261e-02 -7.511514502051547248e-01 -1.680026307359963056e+00 -1.873245754343607405e+00 -6.564217175002670102e-01 -1.070409469897322552e+00 1.164684631525719549e+00 4.091180826070474619e-01 -1.938189768683507896e+00 1.296341579326706350e+00 8.236735346290416371e-02 5.943054026508896165e-02 -1.876309481123846767e+00 2.819605657102390861e-01 4.872508288132760268e-01 -7.120521669788555386e-01 2.418163860728209102e-01 -1.536823048527841795e+00 2.932230269289039515e-01 -1.239488827304205509e+00 6.506732445770885276e-01 9.703884064491208328e-01 -4.657934284967548688e-01 2.169837955133560037e+00 -4.876709471045576616e-01 1.910715472251581781e-01 -3.506357652662218660e-01 -2.372894443625425343e+00 1.073158493624607024e+00 2.571383624084043529e+00 -4.930275838735665994e-01 -1.533629738137562093e+00 -9.985671852054727182e-01 -7.702537198312603417e-01 -1.105435611158821774e-01 -1.497808097492203894e+00 2.036061903931874195e-01 -1.545515949034714787e+00 -1.650848912053220596e+00 2.663913520742294150e+00 3.915013965103328886e+00 -9.858535932426257808e-01 -2.437097465972992705e-01 -3.326286828332271295e+00 6.801026080144647601e-01 3.189942244860142773e-01 8.262801192294164654e-01 4.265033694001184039e-01 7.661106438546927411e-01 6.811850425348413562e-01 -2.189066208824982596e+00 -1.011885500681841243e+00 2.170360403339119504e+00 6.811634452665012995e-01 2.444450821622106695e-01 1.262985112596163306e+00 -1.906766771690074913e+00 2.014663638992950201e+00 -3.379052040211079078e-01 -1.980410885626294748e+00 -4.231062219343623809e+00 1.835846484668075540e+00 -2.074186224758821917e-01 -9.562756200302433007e-02 -5.766516926655920194e-01 -3.154501127514109271e+00 8.190532618662935693e-01 1.690047954090423965e-01 1.916567817751062552e+00 2.369285128709262001e+00 -2.799594245323303809e+00 -1.897677407042959175e+00 1.920204900583662777e+00 2.151275102995281241e+00 1.814191109391770418e+00 2.829177360742433756e+00 1.348317462469752481e+00 -1.615667476147942816e+00 3.948309753794250199e-01 -1.107255952347483863e+00 -8.513092963528433588e-01 1.126214240184655768e+00 3.018745326714584287e+00 1.411559920596861417e+00 -6.689318323421100665e+00 2.308206511181556841e+00 3.200101188510765304e+00 8.218799329154672373e-01 6.986855147590593784e-01 -1.571834791610447812e+00 6.218779152316955550e-01 2.052388410355607262e-01 9.530442573100309511e-01 -1.177187907232588149e+00 7.611828671284364134e-01 2.786008020875383462e+00 -4.704512393687604321e-01 7.141172772087047704e-01 -4.330190595700437184e-01 6.346938371088203246e-01 -3.856840180167361298e-01 4.562433221250515869e-01 1.983440159621325138e+00 1.306187876807073378e+00 -1.784257809693126084e+00 -2.525579417479506539e-01 -8.953353278640493462e-01 -1.970248856651623193e+00 -6.231778650974971745e-01 2.807001594143268441e+00 1.175863274774398004e-01 2.234646729435998402e+00 -3.756196909702695930e+00 -1.173638241914697344e+00 -4.845660826703371837e-01 -8.330117820827422082e-02 8.025462639857182667e-01 5.311513904798399466e-01 -2.993484236066838999e-01 1.151823458229215696e-01 -1.636377199603358257e+00 1.285511063474842564e+00 -8.115914056548039213e-01 1.205404738318872404e+00 -2.141729110388975940e-02 2.275709307198543474e-01 9.587222820007669233e-01 -1.639429613528753160e+00 -2.503755892042553444e-01 -3.493428088015971600e+00 -1.531476181951653359e+00 -1.465375171093535434e+00 -4.489912679488652913e-01 -1.795870969411979434e+00 -5.402849781049848810e-01 -7.219154337414895872e-01 -6.969495057610586297e-01 5.940678326991489788e-01 -6.517027143679646195e-02 -1.354673230009826312e-01 2.035856215661968616e-01 1.622330233430850088e-01 2.711992125391308850e+00 -9.186233537827277473e-01 9.139413745390084776e-01 -7.379586045734285449e-01 -2.045672688343199222e-02 7.287530260538166438e-01 -1.078166488776126190e-02 -1.805969235022980568e+00 3.212322157067188932e+00 1.107112484779225081e+00 -1.735793025317363680e-01 1.433769111539886509e+00 -1.568388484648184589e+00 4.309554920022187208e-01 4.946520069851436663e-01 -7.532587265303345436e-01 -6.836779843660937273e-01 -5.799576173836451520e-01 -6.001778027566860851e-01 1.997657847057854763e+00 3.322949536153057437e+00 8.026671058442876872e-01 -1.503458354266502539e+00 -8.072117881678452234e-01 5.460607047239258716e-01 -3.258363933623466657e+00 -5.308711402120938061e-01 2.927921100034523993e-01 -2.551284794790246835e+00 -6.252172642936082436e-01 -2.031692056637735888e+00 1.844928650225743816e+00 -1.196983860548949341e+00 -2.019142501070138263e+00 1.674292232615677833e-01 -1.707469750551403667e-02 1.202384720295987641e+00 2.889852829261124967e+00 1.040091533133955526e+00 1.089033000075223523e+00 -7.826844904229873778e-01 6.621979583398827918e-02 8.250207927969212263e-02 -1.169275593710005889e+00 -8.044118565937592447e-01 1.724450345673435470e+00 -4.495008606375556770e-01 6.344067991281674423e+00 2.545820171679537669e+00 1.274386413397014195e+00 3.874102053998489392e+00 4.088172635123109577e-01 1.158384399818520150e+00 -6.565549006550307487e-01 -8.428333969707204609e-01 9.035957687834463847e-01 1.030247292536287773e+00 6.497389056110437489e-01 -3.696373504842088487e+00 4.180531810517337798e-01 -5.687280662881650378e-02 -1.591022936089238948e+00 2.997567148224459244e-01 3.002348886279083473e+00 -4.719064838783404991e-01 -1.524246753485156702e+00 -2.735551659826262583e+00 -4.295362429398721926e-01 5.863221266751899030e-01 -6.543761476560587820e-01 9.910153403758995561e-01 3.911029783315262964e+00 -2.808303086671093962e-01 -1.637376844595098246e+00 -3.824392855589799356e-01 2.496293007389714269e+00 1.999507498824978136e+00 7.259253265632934493e-01 2.911543171543313768e-01 1.336891479076512679e-01 3.848917068010609732e+00 -2.652663915040498477e-01 2.627064467188759078e+00 2.659395063673149373e+00 -7.042534962253960140e-01 2.915337091681716952e+00 3.742440478211429777e+00 2.147003471850022827e+00 -1.653104798153407273e+00 -9.691964429250197188e-01 -1.068899717996217635e+00 3.642201899417802924e+00 -3.450807421608893755e+00 1.917390056610008831e-01 6.801607149507129524e-01 -2.366186434923138807e-02 3.310092990842626204e+00 -1.867495224537729648e-02 1.147074630297776787e+00 -1.234564650122672580e+00 2.046906817962630687e-02 -1.305791926887505561e+00 3.447839339874160247e-01 2.156747953636786619e+00 -1.182508034333688673e+00 -9.682286796151151620e-01 2.252994637332226269e+00 2.456208477350569019e+00 3.563045339848120996e-01 -1.064964901392928986e+00 6.687295893507256839e-01 9.880626852614088351e-01 8.869067367840047789e-01 -1.485652949182149740e+00 -6.462344917125321109e-01 3.491697221224718262e-01 7.756489231508764126e-01 -5.607195934994021469e-01 1.779203534680878112e-04 5.910498715589633800e-01 -7.990835019618623691e-02 -5.272476328053071093e+00 -1.361749934935918116e+00 -5.970775663085382545e-01 1.190703683448065542e-01 3.046867541196712104e+00 1.114865904113305328e+00 1.393905696390889126e+00 1.858965331984756775e+00 2.618992745256999988e-01 -2.701814669796395396e+00 4.689445727917040951e-01 4.349041925637257555e-01 4.213560204457381664e-01 1.419178614114153580e+00 -1.763267835969964503e+00 -4.566418431479929985e-01 -1.951501913511779263e+00 1.102455702348568822e+00 8.314017571500584847e-01 1.168701209216295389e+00 2.338826809701684883e+00 1.778872890787005057e+00 -1.049717744165523658e+00 7.359767980928909603e-01 -2.584052993068860715e+00 2.406365067345765940e+00 -1.344932861988460404e+00 5.012232329879433568e-01 1.637526997032128895e+00 2.587399026999545604e-01 -3.991987657908641074e-01 -1.676460186980479605e+00 -5.893981947516238051e-01 3.642492948319719037e+00 1.157455203059222892e+00 -7.213847580051339914e-02 1.661783300481386449e+00 -2.733417644025995408e+00 -1.299947808918821002e+00 1.591020364985864965e+00 -8.749331083721422209e-01 -1.974061288734318298e+00 8.301876821369423842e-01 -2.706745531846699748e+00 5.505863608825173339e-01 7.327649757583196699e-01 -1.308975981305639635e+00 6.030245284121754645e-01 2.343289730937955007e+00 1.761894866768346501e+00 -5.655594384902739025e-01 -3.040979200249998016e+00 -7.207990606565785052e-01 -1.481509873205582251e+00 2.722494054231999527e+00 1.322715443514639100e+00 -2.597791426836510986e+00 1.688140709607727219e+00 -1.273675760424491488e+00 1.765306720945400976e+00 -8.912467592790066506e-01 4.105568720550349382e-01 -1.693009865177060591e-01 1.026630264310002927e+00 6.697390045352858978e-01 1.244390892996723785e+00 -3.251012634857051609e+00 1.693037118872822822e+00 9.338324586802007055e-01 -2.730732897883056398e-01 -1.537125410284602811e+00 -8.330632041502186169e-01 -3.837716827493590888e+00 -1.940461081403937138e+00 3.961967454915962250e-01 -1.292596510152405412e-02 -5.926280148098118650e-01 -1.120613348595134173e+00 1.527986166232035092e+00 -2.877381949456765842e+00 4.710724179438744580e-02 2.276094972704615846e-02 -1.978663049552774389e+00 -1.640960962698198022e+00 2.705834332811019038e-01 1.110469317344079609e+00 2.912410661821639213e+00 5.205533023729690401e-01 3.390596294359514151e-01 8.073120611994241136e-01 7.026882084914165105e+00 1.033799528957552311e-01 -4.862779232966240595e-01 -2.503780574634942191e+00 3.189417225551209434e+00 1.646717148931497787e+00 1.513637866744115934e+00 2.907789360617541452e-01 -1.915540919063560166e+00 3.330591883821389376e-01 4.041846494533686829e-01 6.291819056960329393e-01 4.052320655457939402e+00 -1.966107323337079882e-01 -5.490807227468104124e-01 -6.831637636913302503e-01 8.290301713980502418e-01 1.065023522549852109e+00 -5.194427399816828661e+00 -2.644007009980859024e+00 4.706379528957669756e+00 -6.478717703409784257e-01 1.396781732624839956e+00 -5.210248427317270004e-01 3.082063889501558407e-01 9.474253679968929198e-01 3.177097012404556664e-01 2.591134840201700484e+00 -6.611684885490066721e-01 -2.717517426541640191e-01 -5.986762783863772835e-02 -2.028923492524810523e+00 -1.541986338323139805e+00 3.338861580712932042e+00 -1.018859361472980618e+00 1.114138796079190197e+00 2.841393187092109973e-01 -1.833386967180682670e-01 -3.900312396011847427e-01 -1.315238160682906443e+00 -1.799522964644148404e+00 1.562334564644196622e+00 -3.517958471084878247e-01 -8.625532456272168025e-01 -6.745778210848082379e-01 1.606858361768573440e+00 2.120536019499283054e+00 2.828424541674580128e-01 -2.754142279880979149e+00 -2.236132312965388724e+00 -9.731178897907643011e-01 6.079384211802131288e-01 -1.459323822192921449e+00 8.250218212382707250e-01