-1.206759836755628754e+02 2.473525366069382159e+01 -1.503478972335983599e+01 2.473525366069382159e+01 -1.497512577609812183e+02 -3.629069347235774501e+01 -1.503478972335983599e+01 -3.629069347235774501e+01 -1.310736562295894316e+02
-1.038044554054472144e+02 4.055407130203785471e+01 -3.993912119107348957e+01 4.055407130203785471e+01 -1.074758523057711557e+02 -7.457309810209874712e+00 -3.993912119107348957e+01 -7.457309810209874712e+00 -1.218732496577403310e+02
-7.184328949885757254e+01 -6.329486439680453103e+00 -7.080469526673535796e+00 -6.329486439680453103e+00 -8.752531381945289013e+01 -7.206833117187149362e+00 -7.080469526673535796e+00 -7.206833117187149362e+00 -8.355193049868272226e+01
-1.324309283197136722e+02 2.856687252846327851e+01 -3.597555667742894769e+01 2.856687252846327851e+01 -1.267479120597280087e+02 -1.978938358837436340e+01 -3.597555667742894769e+01 -1.978938358837436340e+01 -1.052851222543243637e+02
-1.088860578287152663e+02 3.436876118888402232e+01 -2.153962942315083140e+01 3.436876118888402232e+01 -5.483572341623855806e+01 2.543641062253259477e+01 -2.153962942315083140e+01 2.543641062253259477e+01 -7.353970358929197459e+01
-7.820116884460182405e+01 2.639515771334996330e+01 6.012384508749535339e-01 2.639515771334996330e+01 -8.122938920444494215e+01 2.100477540465842097e+01 6.012384508749535339e-01 2.100477540465842097e+01 -8.045196638347927376e+01
-5.768376625981668582e+01 -1.876442948742749639e+00 -2.967298038251536951e+01 -1.876442948742749639e+00 -1.619524822457008213e+02 -9.508444949348458408e+00 -2.967298038251536951e+01 -9.508444949348458408e+00 -8.678416633997093754e+01
-8.729468194543603943e+01 -2.645099532190143599e+00 -4.882969428968654491e+00 -2.645099532190143599e+00 -1.047003110167604376e+02 -1.589720213090429368e+01 -4.882969428968654491e+00 -1.589720213090429368e+01 -7.789177014497870744e+01
-9.905059999374125823e+01 3.442299105145241356e+01 -1.356617384191951992e+00 3.442299105145241356e+01 -6.726323789352575488e+01 2.575120173680194924e+01 -1.356617384191951992e+00 2.575120173680194924e+01 -9.086405901385090544e+01
-6.711641779724290302e+01 1.195055051444278504e+01 4.063774994944424179e+00 1.195055051444278504e+01 -5.371741924595981033e+01 1.939513123256430305e+01 4.063774994944424179e+00 1.939513123256430305e+01 -7.147358734275276504e+01
-6.518505871563880305e+01 3.655373659919092688e+00 5.062546713278574195e+00 3.655373659919092688e+00 -6.729926021102163247e+01 -1.116031790862805489e-01 5.062546713278574195e+00 -1.116031790862805489e-01 -7.595214170998536929e+01
-1.394478178056284605e+02 2.258086335220853513e+01 -7.295957176819526069e+01 2.258086335220853513e+01 -1.336012174646848223e+02 9.461058952913885989e+00 -7.295957176819526069e+01 9.461058952913885989e+00 -1.242316208286945169e+02
-1.075027107766250367e+02 1.493911941896847573e+01 -8.686819041348547543e+00 1.493911941896847573e+01 -9.722180268375458922e+01 -1.446294176507619511e+01 -8.686819041348547543e+00 -1.446294176507619511e+01 -6.620568824462452540e+01
-8.870231064561467349e+01 1.411467715543391677e+01 2.151292928320283515e+00 1.411467715543391677e+01 -8.245971274517826544e+01 5.331003204329620360e+01 2.151292928320283515e+00 5.331003204329620360e+01 -7.350943056735879111e+01
-1.365231377125830932e+02 8.090797619277154240e+00 7.969368251077674437e+00 8.090797619277154240e+00 -9.566262788793879679e+01 -4.385067349303700013e+00 7.969368251077674437e+00 -4.385067349303700013e+00 -8.890452364933555884e+01
-6.926555442153807007e+01 1.392957127153461094e+00 -2.627490691764916786e+00 1.392957127153461094e+00 -5.855643632092039752e+01 4.738211707282852458e+00 -2.627490691764916786e+00 4.738211707282852458e+00 -7.531619137168434008e+01
-7.842189969142455652e+01 2.151008085420494265e+00 7.148972844040749841e+00 2.151008085420494265e+00 -9.018564697392891105e+01 -2.834840260624816466e+01 7.148972844040749841e+00 -2.834840260624816466e+01 -1.023633506643826934e+02
-5.608049528851079657e+01 1.295344290915029362e+01 -2.328797910532628190e+00 1.295344290915029362e+01 -5.865894081849634745e+01 4.338404023997368242e+00 -2.328797910532628190e+00 4.338404023997368242e+00 -5.147849550681748809e+01
-8.280396715370947902e+01 1.086574274915358274e+01 6.148599743505908322e+00 1.086574274915358274e+01 -8.998468101700522936e+01 -8.809353162170980411e+00 6.148599743505908322e+00 -8.809353162170980411e+00 -6.912604427481130642e+01
-1.010389024547249619e+02 2.352047327662182497e+01 6.047160797653398312e+00 2.352047327662182497e+01 -4.324384305930005468e+01 1.882628010668389962e+01 6.047160797653398312e+00 1.882628010668389962e+01 -8.812014368690952892e+01
-9.196228137786754075e+01 1.684949329176236077e+01 -2.719407128199893275e-01 1.684949329176236077e+01 -9.340563711603913077e+01 -3.979938016632159403e+00 -2.719407128199893275e-01 -3.979938016632159403e+00 -4.647945221435771401e+01
-9.496829671909185322e+01 -3.423024073759459274e+00 -3.223511859285015380e+00 -3.423024073759459274e+00 -6.513084463525073886e+01 -1.120804907661947958e+01 -3.223511859285015380e+00 -1.120804907661947958e+01 -4.329776211473649994e+01
-7.156054639270570306e+01 5.239406407956542999e+00 6.768461167167804327e+00 5.239406407956542999e+00 -4.286420322061457711e+01 -8.615487149984497606e-01 6.768461167167804327e+00 -8.615487149984497606e-01 -5.942394000892839756e+01
-8.913899033862077204e+01 -7.197700325803196186e+00 1.535223886225796619e+01 -7.197700325803196186e+00 -5.287188588027606784e+01 -9.102007223017476889e+00 1.535223886225796619e+01 -9.102007223017476889e+00 -6.722034243649706298e+01
-7.008942852658081790e+01 8.859818974731160424e+00 1.432913254916594425e+01 8.859818974731160424e+00 -1.211420161875685864e+02 5.060161567638693514e-01 1.432913254916594425e+01 5.060161567638693514e-01 -1.160041757465610459e+02
-8.042460619202174144e+01 1.332882690472444054e+01 -1.076064131925981293e+01 1.332882690472444054e+01 -7.430361330017881016e+01 2.357881566992211120e+01 -1.076064131925981293e+01 2.357881566992211120e+01 -7.155407188050182299e+01
-1.075163201070936054e+02 1.939316456925440946e+01 7.552227406420110256e+00 1.939316456925440946e+01 -7.933540538047289203e+01 9.975919239892485635e+00 7.552227406420110256e+00 9.975919239892485635e+00 -1.276639309337178929e+02
-7.242127825259653662e+01 1.053693527689396525e+01 7.693409191505161004e+00 1.053693527689396525e+01 -4.828347430129378637e+01 -7.490210056065079058e+00 7.693409191505161004e+00 -7.490210056065079058e+00 -5.602448840334775326e+01
-1.119321265617527814e+02 2.934506714895723789e+01 -2.163432072325926825e+01 2.934506714895723789e+01 -1.178815294798395001e+02 -8.124296060677046682e+00 -2.163432072325926825e+01 -8.124296060677046682e+00 -1.161406888063332872e+02
-8.717585790974715110e+01 -9.299130473582606360e-01 1.159981599357918558e+00 -9.299130473582606360e-01 -1.011135356218418053e+02 -9.415821623965570097e+00 1.159981599357918558e+00 -9.415821623965570097e+00 -8.122806095578444285e+01
-6.277213363831692305e+01 1.031487999968016034e+01 -9.412148703321190357e-01 1.031487999968016034e+01 -5.663198652513308673e+01 1.693552959326871132e+01 -9.412148703321190357e-01 1.693552959326871132e+01 -5.860979027248058060e+01
-6.187044040214144758e+01 -1.130602307023612640e-01 -2.312288986255739420e+00 -1.130602307023612640e-01 -5.195954272699480470e+01 1.027602147164857449e+01 -2.312288986255739420e+00 1.027602147164857449e+01 -6.125789198265117363e+01
-7.083084557588482255e+01 1.617499370525391722e+00 -1.273172313054410232e+01 1.617499370525391722e+00 -7.485150798154539586e+01 -6.160236301433495321e+00 -1.273172313054410232e+01 -6.160236301433495321e+00 -6.786786544035048507e+01
-9.659326717014344865e+01 -9.856809597649915489e+00 -1.841948957225719719e+00 -9.856809597649915489e+00 -1.041739256653216898e+02 -8.327580979903750347e+00 -1.841948957225719719e+00 -8.327580979903750347e+00 -8.834675645051996185e+01
-6.569830845657007501e+01 1.799754839926698935e+01 -9.503120245346855510e-01 1.799754839926698935e+01 -6.844118266871238632e+01 2.200003355145924289e+01 -9.503120245346855510e-01 2.200003355145924289e+01 -7.445843063451589217e+01
-1.397744391913613526e+02 -1.149452186835463863e+01 -1.345427563788162306e+00 -1.149452186835463863e+01 -1.379540395286169030e+02 -1.489046524797916327e+01 -1.345427563788162306e+00 -1.489046524797916327e+01 -9.463645066801652206e+01
-1.128247725357796156e+02 2.008783327311934386e+01 -2.598501524746264835e+01 2.008783327311934386e+01 -1.189500154160541001e+02 3.833228650162903595e+00 -2.598501524746264835e+01 3.833228650162903595e+00 -1.316998895812830597e+02
-8.560115090297573204e+01 1.855867974800538178e+01 9.671493199829138021e+00 1.855867974800538178e+01 -9.120138580887203261e+01 2.015970099496065515e+01 9.671493199829138021e+00 2.015970099496065515e+01 -8.449240920666792931e+01
-8.750928166975268141e+01 -5.791568132691471860e+00 -4.144062255439386000e+00 -5.791568132691471860e+00 -1.042129323422073526e+02 -1.791805202964749455e+01 -4.144062255439386000e+00 -1.791805202964749455e+01 -1.048273137855773172e+02
-6.349553558332789294e+01 -7.062091941335562062e+00 2.119213610393425373e+00 -7.062091941335562062e+00 -7.201494311043768448e+01 -1.032227115109953708e+01 2.119213610393425373e+00 -1.032227115109953708e+01 -7.156149408717928395e+01
-9.668687840910460807e+01 2.770405691166656581e+01 -2.065411470367054747e+01 2.770405691166656581e+01 -8.866567816866320584e+01 1.378712309375389111e+01 -2.065411470367054747e+01 1.378712309375389111e+01 -1.095902042409697117e+02
-1.048074704938791939e+02 6.085027084734688785e+00 9.293870680161383291e+00 6.085027084734688785e+00 -8.577058380905293689e+01 4.284207711289742804e+01 9.293870680161383291e+00 4.284207711289742804e+01 -1.142159149667466664e+02
-7.225105445564386741e+01 1.115680153703048028e+01 3.687919824922102130e+00 1.115680153703048028e+01 -5.893784860027722772e+01 4.880495190375309988e+00 3.687919824922102130e+00 4.880495190375309988e+00 -7.130395639576757105e+01
-8.933791759421791312e+01 -6.111495837554973498e+00 6.111426090499976205e+00 -6.111495837554973498e+00 -9.808595596760974900e+01 -3.165978430002181820e+00 6.111426090499976205e+00 -3.165978430002181820e+00 -7.400433097814588734e+01
-1.453845224323335685e+02 -1.381788078135393327e+01 -2.528955718003002318e+01 -1.381788078135393327e+01 -1.675701330421402986e+02 -1.091475609202099939e+01 -2.528955718003002318e+01 -1.091475609202099939e+01 -1.333724015596108643e+02
-8.054198743096712576e+01 1.636841450722437585e+01 -3.837164013193059109e+00 1.636841450722437585e+01 -6.447883058288886104e+01 1.756954025069717673e+01 -3.837164013193059109e+00 1.756954025069717673e+01 -5.853904512185292219e+01
-7.753589445159764182e+01 8.959522898952780423e+00 1.089144046609945793e+00 8.959522898952780423e+00 -7.525308250537372601e+01 3.800254584431970617e+00 1.089144046609945793e+00 3.800254584431970617e+00 -8.173056481377146554e+01
-1.210066873004235219e+02 -6.062460857827427496e+00 -5.764685988567115338e+00 -6.062460857827427496e+00 -1.472138853552990838e+02 4.983110417764842204e+00 -5.764685988567115338e+00 4.983110417764842204e+00 -7.426256435824849689e+01
-5.511722074834968765e+01 2.486979700254061854e+01 -1.002362291634398161e+01 2.486979700254061854e+01 -4.585795377131374551e+01 -7.986412751280531630e+00 -1.002362291634398161e+01 -7.986412751280531630e+00 -7.777625171241463420e+01
-8.475434808998075198e+01 3.786097459575236801e+00 2.540432112255391228e+00 3.786097459575236801e+00 -6.719837389603189592e+01 -1.498094906972244189e+01 2.540432112255391228e+00 -1.498094906972244189e+01 -6.937485747511721002e+01
-8.205223263129175848e+01 1.185421150379785260e+01 -1.014375865485916250e+01 1.185421150379785260e+01 -6.455272376938934542e+01 7.677269112055612688e+00 -1.014375865485916250e+01 7.677269112055612688e+00 -4.829681966206882038e+01
-6.382630844614092780e+01 -3.633111367258790581e-01 8.318909690018742253e+00 -3.633111367258790581e-01 -4.964732781516608640e+01 2.178718208544086465e+01 8.318909690018742253e+00 2.178718208544086465e+01 -7.200378561804842548e+01
-1.138536999278996831e+02 -4.220157565198215943e-01 2.257093865174393699e+00 -4.220157565198215943e-01 -1.059768417268783480e+02 -2.197700684125821979e+00 2.257093865174393699e+00 -2.197700684125821979e+00 -8.570085253623568633e+01
-1.187656311850778508e+02 2.809185181020955113e+01 -2.906739063179323423e+01 2.809185181020955113e+01 -1.003529460235036339e+02 3.822977360386034196e+00 -2.906739063179323423e+01 3.822977360386034196e+00 -1.012150369327617483e+02
-7.375891298302083499e+01 1.439582346130840307e+01 2.353044175990927078e-01 1.439582346130840307e+01 -5.323853520269258865e+01 2.623752682354249544e+01 2.353044175990927078e-01 2.623752682354249544e+01 -5.485961509174206441e+01
-8.358932942958526269e+01 -1.358359685989894849e+01 6.301444305301994397e+00 -1.358359685989894849e+01 -4.475478216645652907e+01 1.947362594283557158e+01 6.301444305301994397e+00 1.947362594283557158e+01 -5.677866407269038973e+01
-7.493723067585554531e+01 -2.088366829839918726e+00 -5.706398832897975559e+00 -2.088366829839918726e+00 -9.108384038434100205e+01 -6.937584029766955318e+00 -5.706398832897975559e+00 -6.937584029766955318e+00 -7.579124670891427229e+01
-1.099662330149756286e+02 2.579607403919236219e+01 2.671092528638928432e+00 2.579607403919236219e+01 -9.468508803862033574e+01 3.364159035739022130e+01 2.671092528638928432e+00 3.364159035739022130e+01 -1.123771410278310867e+02
-1.178624114047826055e+02 1.994176104854300036e+01 -2.619028668500030577e+01 1.994176104854300036e+01 -1.056033022099922078e+02 2.691257064072095417e+00 -2.619028668500030577e+01 2.691257064072095417e+00 -1.144390049949771253e+02
-8.925656198193526336e+01 1.157059350484297866e+01 1.094124622715011519e+01 1.157059350484297866e+01 -5.928877174365086233e+01 9.836563860353447097e+00 1.094124622715011519e+01 9.836563860353447097e+00 -8.153126769514179273e+01
-1.614588321908777573e+02 3.358777134061295300e+01 -3.230932309558517801e+01 3.358777134061295300e+01 -1.291691538369801151e+02 -1.617083026426289649e+01 -3.230932309558517801e+01 -1.617083026426289649e+01 -1.231546937169661646e+02
-7.712594799020794767e+01 -1.768482398696670510e-01 1.030465620144321548e+01 -1.768482398696670510e-01 -8.935059144867511804e+01 -1.142762222414977630e-01 1.030465620144321548e+01 -1.142762222414977630e-01 -6.634784903399248890e+01
-1.275952901586510393e+02 2.924232591867637954e+00 3.747480755274482433e+00 2.924232591867637954e+00 -1.454335258477004800e+02 -8.053259957918497136e+00 3.747480755274482433e+00 -8.053259957918497136e+00 -9.233419583928250063e+01
-9.955122449951278440e+01 2.267076552424133951e+01 -2.543477003943237946e+01 2.267076552424133951e+01 -9.431342252837247031e+01 5.814517713849924441e+00 -2.543477003943237946e+01 5.814517713849924441e+00 -1.039283137021094205e+02
-7.025116227417096582e+01 -8.631156309537164617e+00 -6.070366711966531881e+00 -8.631156309537164617e+00 -9.062956610578221728e+01 3.489142372762440658e+01 -6.070366711966531881e+00 3.489142372762440658e+01 -6.074866847956259619e+01
-1.178973506065156585e+02 -2.363220627686887010e+00 -8.579646073011092611e+00 -2.363220627686887010e+00 -7.412798970659233078e+01 -2.538290368564374688e+01 -8.579646073011092611e+00 -2.538290368564374688e+01 -8.436637220546658966e+01
-5.876841416689224928e+01 5.666016560810858138e-01 1.634386558027559611e+00 5.666016560810858138e-01 -1.126850220926297794e+02 -8.493145724492842774e+00 1.634386558027559611e+00 -8.493145724492842774e+00 -9.642033647471323832e+01
-1.390039042739036290e+02 3.012652893533037002e+01 -4.483889278741157369e+01 3.012652893533037002e+01 -1.359092674082147312e+02 1.627051993361196125e+01 -4.483889278741157369e+01 1.627051993361196125e+01 -1.247042220368834791e+02
-1.828875192501057256e+02 2.685237256847565845e+01 -3.620882264825278440e+01 2.685237256847565845e+01 -1.261883016549808900e+02 1.440138107974549264e+01 -3.620882264825278440e+01 1.440138107974549264e+01 -1.299049796670759918e+02
-7.623065519180934757e+01 9.201949661803086045e+00 5.250356186488571275e+00 9.201949661803086045e+00 -6.398814223239023846e+01 2.057069595313697619e+01 5.250356186488571275e+00 2.057069595313697619e+01 -8.229258683749318948e+01
-1.002968556455156204e+02 -1.189546815958539483e+01 -1.192389033904820206e+00 -1.189546815958539483e+01 -9.837601182338192984e+01 1.542719327310986488e+00 -1.192389033904820206e+00 1.542719327310986488e+00 -7.685797751394561317e+01
-3.061299427983479404e+01 7.958652405186314560e+00 2.073117959931436616e+01 7.958652405186314560e+00 -7.179050497854565549e+01 -1.137453682420646039e+01 2.073117959931436616e+01 -1.137453682420646039e+01 -6.802752281302231552e+01
-6.951756453156555438e+01 1.613144761511364544e+00 1.552926986995788461e+01 1.613144761511364544e+00 -7.819807451905236917e+01 2.360165095754883424e+01 1.552926986995788461e+01 2.360165095754883424e+01 -8.259218378492749935e+01
-1.473194823965654052e+02 5.466467614584457380e+01 -8.126383635852356235e+00 5.466467614584457380e+01 -1.084906655922034417e+02 3.086308965501669110e+00 -8.126383635852356235e+00 3.086308965501669110e+00 -1.242257898221659502e+02
-5.990829486864090825e+01 -4.433863305364666552e+00 -2.261215559752936421e+00 -4.433863305364666552e+00 -6.287479824865778966e+01 -8.882782810762167358e+00 -2.261215559752936421e+00 -8.882782810762167358e+00 -5.432111055311928283e+01
-1.267866672399335783e+02 3.880528099156969546e+01 -2.582605330893042606e+01 3.880528099156969546e+01 -1.265640318403170852e+02 -1.019287967292462405e+01 -2.582605330893042606e+01 -1.019287967292462405e+01 -1.217894399164167112e+02
-7.816408504820324765e+01 1.427163933898781423e+01 -5.262472319057090786e+00 1.427163933898781423e+01 -5.565388513565648765e+01 1.997409848148361178e+01 -5.262472319057090786e+00 1.997409848148361178e+01 -7.483595795199907741e+01
-1.516822864350036184e+02 3.445659004061407416e+01 -3.338163366501633078e+01 3.445659004061407416e+01 -1.035028559029703388e+02 -2.467483311061616114e+00 -3.338163366501633078e+01 -2.467483311061616114e+00 -1.322525166257863702e+02
-1.009546981588931374e+02 1.327845349428456778e+01 -3.490994309803404150e+01 1.327845349428456778e+01 -1.221670965459580600e+02 2.609879204006216113e+01 -3.490994309803404150e+01 2.609879204006216113e+01 -9.929850368226793478e+01
-8.315185884570368557e+01 1.912219242411422115e+01 7.140855966877581729e+00 1.912219242411422115e+01 -6.357923179477369757e+01 1.602642662342928759e+01 7.140855966877581729e+00 1.602642662342928759e+01 -7.655476186529290317e+01
-1.217847627909111452e+02 2.295394645862165106e+01 -1.533670665130234312e+01 2.295394645862165106e+01 -1.219502437881239842e+02 -2.201124500872315792e+01 -1.533670665130234312e+01 -2.201124500872315792e+01 -1.815430994548968897e+02
-7.252702929739670878e+01 1.356763114808689608e+01 8.830094001737412768e+00 1.356763114808689608e+01 -6.720254700997215025e+01 -2.944639205582931130e+00 8.830094001737412768e+00 -2.944639205582931130e+00 -1.192071397161617199e+02
-9.979150335853070430e+01 -1.560356524750544516e+01 -2.629014181269151873e+00 -1.560356524750544516e+01 -1.185733202267562518e+02 -2.164256334876246513e+01 -2.629014181269151873e+00 -2.164256334876246513e+01 -7.040974416761883958e+01
-8.663224961764736065e+01 1.481518857518702070e+01 -6.839795604044811128e+00 1.481518857518702070e+01 -6.325663206496014368e+01 6.426706706910792377e+00 -6.839795604044811128e+00 6.426706706910792377e+00 -8.164636357255515975e+01
-1.205033961152791875e+02 -8.314213473166002899e+00 7.227305659688004980e+00 -8.314213473166002899e+00 -1.405973523652631343e+02 1.790856184824450192e+00 7.227305659688004980e+00 1.790856184824450192e+00 -1.053754047259928086e+02
-5.410803991843538796e+01 1.124049902123274869e+01 -1.604978755948144986e+00 1.124049902123274869e+01 -4.876058106741504616e+01 -1.855780867347180063e+01 -1.604978755948144986e+00 -1.855780867347180063e+01 -6.425537552810048680e+01
-1.263226993934866016e+02 3.641120314672618097e+00 -3.080586830562227973e+01 3.641120314672618097e+00 -1.661609676157900708e+02 -3.279593327977680772e+00 -3.080586830562227973e+01 -3.279593327977680772e+00 -1.012811861597471363e+02
-1.435082317052655867e+02 7.776709575686278519e+00 -4.543959591691185551e+01 7.776709575686278519e+00 -1.433987382473173398e+02 -1.211472973632986161e+01 -4.543959591691185551e+01 -1.211472973632986161e+01 -1.378264658012439554e+02
-7.085614288364268987e+01 4.149270374947599649e+00 -3.772330052752085550e+00 4.149270374947599649e+00 -8.973346383426355999e+01 -1.208390866545721209e+01 -3.772330052752085550e+00 -1.208390866545721209e+01 -6.466822794708087940e+01
-7.841351706270879163e+01 8.531971160855999159e+00 -7.533012092768280432e+00 8.531971160855999159e+00 -8.663061794384248060e+01 -8.039400658077628492e+00 -7.533012092768280432e+00 -8.039400658077628492e+00 -6.471349480397948639e+01
-6.916872921791852491e+01 6.936736373952569146e+00 3.747627122269459043e+00 6.936736373952569146e+00 -1.327827955938427635e+02 1.316068813743411958e+01 3.747627122269459043e+00 1.316068813743411958e+01 -6.369022761446862546e+01
-1.030403962729498488e+02 2.802507867799860719e+01 -2.486400926973229630e+01 2.802507867799860719e+01 -7.645646459153081764e+01 1.399593406705702847e+01 -2.486400926973229630e+01 1.399593406705702847e+01 -6.970351068929167582e+01
-7.743226865556454186e+01 -2.220384004629065267e+00 1.001024751851607242e+01 -2.220384004629065267e+00 -1.131425365546304107e+02 -5.320798421074458773e+00 1.001024751851607242e+01 -5.320798421074458773e+00 -5.506216613958351758e+01
-8.453615919239599918e+01 1.646728808511971209e+01 2.281408528565823346e+01 1.646728808511971209e+01 -7.596845437521332656e+01 2.406718454901511706e+01 2.281408528565823346e+01 2.406718454901511706e+01 -5.604893881894512475e+01
-7.571385598761206381e+01 2.222962303792056105e+01 1.201241309761008402e+01 2.222962303792056105e+01 -9.597133369893526833e+01 1.807408535552370665e+01 1.201241309761008402e+01 1.807408535552370665e+01 -8.347204059276020871e+01
-1.249652610813662790e+02 3.902254892256692642e+01 -3.823181383249466592e+01 3.902254892256692642e+01 -1.060338599443388574e+02 7.377148552606240806e-01 -3.823181383249466592e+01 7.377148552606240806e-01 -1.433910100699825989e+02
-7.136566039347771095e+01 1.561061479108611216e+01 7.563755016393176156e+00 1.561061479108611216e+01 -3.468636840413672928e+01 5.737720351617797476e+00 7.563755016393176156e+00 5.737720351617797476e+00 -5.209461044451055756e+01
-1.109260494757858737e+02 -5.902656354506729208e+00 2.032720898414044797e+00 -5.902656354506729208e+00 -9.597305293838583395e+01 -7.560588652827064493e+00 2.032720898414044797e+00 -7.560588652827064493e+00 -1.225690656242945948e+02
-6.237133015036300776e+01 1.009787476561999142e+01 -1.148089981032127893e+00 1.009787476561999142e+01 -6.330457451052692619e+01 4.177376910803847210e+00 -1.148089981032127893e+00 4.177376910803847210e+00 -6.524659190942958276e+01
-4.526577149188275939e+01 -9.484912191171760432e-01 -2.915595157304945673e+00 -9.484912191171760432e-01 -5.346766369675756181e+01 1.320586997419999342e+01 -2.915595157304945673e+00 1.320586997419999342e+01 -6.433893937287254516e+01
-7.604721280062686617e+01 3.149608057995493837e+01 8.350058877511434829e+00 3.149608057995493837e+01 -9.067558261624640181e+01 -3.354447954721699876e+00 8.350058877511434829e+00 -3.354447954721699876e+00 -4.507551959899137017e+01
-6.688821383348360428e+01 -4.718082809031071828e-02 9.561840901872422194e+00 -4.718082809031071828e-02 -4.280844910488806931e+01 5.034561852941627613e+00 9.561840901872422194e+00 5.034561852941627613e+00 -7.266130408762663251e+01
-1.077064874889548491e+02 1.550697728569340406e+00 1.181122059003330982e+01 1.550697728569340406e+00 -5.429542250912264478e+01 1.252694883168677720e+01 1.181122059003330982e+01 1.252694883168677720e+01 -8.320155387694076410e+01
-1.348001813040039849e+02 3.807415392383948927e+01 -3.376597735709341208e+01 3.807415392383948927e+01 -1.595213323138183341e+02 -9.748632424451271206e-01 -3.376597735709341208e+01 -9.748632424451271206e-01 -1.149215869049156993e+02
-1.063360214960764552e+02 -2.458604612780943555e+01 -1.029194212788130436e+01 -2.458604612780943555e+01 -1.304260207140633554e+02 -2.906508770622183491e+01 -1.029194212788130436e+01 -2.906508770622183491e+01 -9.852259442330597494e+01
-1.045178575573613671e+02 2.246029589469599941e+01 -2.235917895623243723e+01 2.246029589469599941e+01 -9.298026204607113243e+01 -2.123381887859065120e+00 -2.235917895623243723e+01 -2.123381887859065120e+00 -9.323498490925595661e+01
-7.112673702010889087e+01 -1.363763148162360217e+00 1.033837762977806563e+01 -1.363763148162360217e+00 -1.256386004230693345e+02 2.667455499727230617e+00 1.033837762977806563e+01 2.667455499727230617e+00 -1.084113670089406583e+02
-1.257746201624306934e+02 1.343848836652779610e+01 -1.809905709217449754e+01 1.343848836652779610e+01 -1.047163861856295881e+02 -3.944241779345956656e-01 -1.809905709217449754e+01 -3.944241779345956656e-01 -1.078319812776913835e+02
-1.004259378438663646e+02 1.507207665169231525e+01 2.508104861366607707e+00 1.507207665169231525e+01 -8.475237175372163279e+01 -7.146361911401660549e+00 2.508104861366607707e+00 -7.146361911401660549e+00 -1.013579931949284969e+02
-5.454261090850866367e+01 1.137867353731144426e+01 4.397441851437266180e+00 1.137867353731144426e+01 -6.003014119186259023e+01 2.997883445534709868e+00 4.397441851437266180e+00 2.997883445534709868e+00 -7.200936385514046378e+01
-1.382007860269537503e+02 1.882505698770848923e+01 -2.694883096367823683e+01 1.882505698770848923e+01 -1.236832427544175630e+02 -1.594548058418128456e+01 -2.694883096367823683e+01 -1.594548058418128456e+01 -1.076457602045659740e+02
-1.003833895948048962e+02 1.765794540656048639e+01 -1.271763117081904682e+01 1.765794540656048639e+01 -1.078801757290408148e+02 3.021161677870927420e+01 -1.271763117081904682e+01 3.021161677870927420e+01 -8.188816693928251311e+01
-9.698837558196065345e+01 2.986096345970897303e+01 -1.834493506149070541e+01 2.986096345970897303e+01 -9.996861734995299287e+01 7.718328745140352609e-01 -1.834493506149070541e+01 7.718328745140352609e-01 -8.973632931819825842e+01
-1.565401980889835727e+02 6.473551858207579812e+01 -4.535352321457023805e+01 6.473551858207579812e+01 -1.833377133259471634e+02 7.525110820552495028e+00 -4.535352321457023805e+01 7.525110820552495028e+00 -1.843596924859022295e+02
-8.305973367720632439e+01 1.737501978712967698e+01 1.049157347236209681e+01 1.737501978712967698e+01 -7.567545590646388121e+01 2.100185646495164260e+00 1.049157347236209681e+01 2.100185646495164260e+00 -1.275357259191318207e+02
-1.046982748609468246e+02 4.097141196946247277e+01 -2.028402435683994298e+01 4.097141196946247277e+01 -1.341736249267162009e+02 -8.898507462497275977e-01 -2.028402435683994298e+01 -8.898507462497275977e-01 -1.175662521725955401e+02
-3.414355125746369879e+01 1.982709638102440053e+01 -9.172439784654130790e+00 1.982709638102440053e+01 -5.622636870852527124e+01 2.805783026589717366e+01 -9.172439784654130790e+00 2.805783026589717366e+01 -3.696935166338259648e+01
-7.283700251929403180e+01 1.766107486018873729e+01 -1.937548496356900518e+00 1.766107486018873729e+01 -4.003944189308437274e+01 8.783332928733566192e+00 -1.937548496356900518e+00 8.783332928733566192e+00 -6.428427448213996342e+01
-1.459984762295269434e+02 1.238327346210991564e+01 -5.324458079596337967e+01 1.238327346210991564e+01 -1.421559913306016938e+02 -3.241174919136206700e+00 -5.324458079596337967e+01 -3.241174919136206700e+00 -1.339376612212614646e+02
-1.034802033831738726e+02 1.984998665173097621e+01 -8.243215298550500947e+00 1.984998665173097621e+01 -8.232709304747241674e+01 2.535744957428777369e+01 -8.243215298550500947e+00 2.535744957428777369e+01 -1.077631564620377986e+02
-8.416026405782025677e+01 2.531571512571836990e+01 2.634811128834373406e+01 2.531571512571836990e+01 -1.000666987642163832e+02 1.221924468003854258e+01 2.634811128834373406e+01 1.221924468003854258e+01 -1.100069512947729606e+02
-1.695642507274722561e+02 3.537802398431551154e+01 -2.432420091937339990e+01 3.537802398431551154e+01 -1.202695400945521271e+02 -2.578729354680153740e-01 -2.432420091937339990e+01 -2.578729354680153740e-01 -1.054202103359437928e+02
-8.835008063588935556e+01 1.147743994911132859e+01 6.864818250954725087e-01 1.147743994911132859e+01 -8.462165177233491420e+01 -3.233178444735865131e+00 6.864818250954725087e-01 -3.233178444735865131e+00 -1.073119528357579640e+02
-5.836962876160993119e+01 2.515043776954201959e+01 1.444544747273399388e+01 2.515043776954201959e+01 -8.254808251841150479e+01 3.277147904590999161e+01 1.444544747273399388e+01 3.277147904590999161e+01 -8.316075668624179684e+01
-2.559403336669861062e+01 1.166198072913437755e+01 1.248418141395977976e+01 1.166198072913437755e+01 -6.909560706729243407e+01 1.127174901103850502e+01 1.248418141395977976e+01 1.127174901103850502e+01 -5.255707949292898462e+01
-9.985127531190715899e+01 3.539164247863072887e+01 -1.117994024980157164e+01 3.539164247863072887e+01 -9.248415862586097091e+01 1.925992453004114324e+01 -1.117994024980157164e+01 1.925992453004114324e+01 -9.653393686326488421e+01
-8.058656801757275900e+01 -7.581571061573031400e-01 -7.505136180385855837e+00 -7.581571061573031400e-01 -1.009999382879057066e+02 -1.139814187495111319e+01 -7.505136180385855837e+00 -1.139814187495111319e+01 -7.059945513900704839e+01
-8.130191799600095237e+01 3.531182410162228447e+00 -8.429961256447430884e+00 3.531182410162228447e+00 -5.806822068170735918e+01 3.107983142848590674e+01 -8.429961256447430884e+00 3.107983142848590674e+01 -8.918640764486471539e+01
-1.172710826358458007e+02 2.735006820703987174e+01 -2.940380256945794812e+01 2.735006820703987174e+01 -1.354643244710504746e+02 2.510419496297604081e+00 -2.940380256945794812e+01 2.510419496297604081e+00 -1.393590578052590558e+02
-6.408193802104071324e+01 -4.456628845936392302e+00 -5.756809407827005565e+00 -4.456628845936392302e+00 -7.446552625188105878e+01 -7.260654934028669238e+00 -5.756809407827005565e+00 -7.260654934028669238e+00 -6.373926412150395748e+01