3.515413000000000121e+00 1.197168300000000052e+01 1.231458300000000072e+01 9.935083000000000553e+00 6.685443000000000247e+00 1.047782999999999909e+00 2.389193000000000122e+00 5.213953000000000060e+00 3.480583000000000204e+00 6.401683000000000234e+00 1.007028299999999987e+01 1.091748300000000071e+01 3.251303000000000054e+00 8.942083000000000226e+00 5.126533000000000229e+00 3.856882999999999839e+00 7.320223000000000368e+00 3.272723000000000049e+00 8.325053000000000480e+00 1.140878299999999967e+01 4.126533000000000229e+00 1.208778299999999994e+01 3.832430000000000003e-01 1.113008300000000084e+01 7.673433000000000170e+00 1.141258299999999970e+01 7.013762999999999970e+00 7.548953000000000024e+00 1.797542999999999891e+00 5.254612999999999978e+00 6.914082999999999757e+00 1.266688300000000034e+01 1.167668300000000059e+01 3.785299999999999776e-02 5.905623000000000289e+00 5.644142999999999688e+00 1.975299999999999973e-02 4.128512999999999877e+00 1.120878300000000038e+01 6.860083000000000375e+00 7.818202999999999570e+00 8.465362999999999971e+00 1.255568300000000015e+01 2.763033000000000072e+00 4.383342999999999989e+00 9.258283000000000484e+00 4.410013000000000183e+00 8.873182999999999154e+00 6.274503000000000164e+00 1.512332999999999927e+00 1.424053000000000013e+00 2.310953000000000035e+00 6.736703000000000330e+00 5.496630000000000127e-01 1.463073000000000068e+00 1.196478300000000061e+01 1.113338300000000025e+01 1.021528299999999945e+01 3.628362999999999783e+00 6.717863000000000362e+00 5.498643000000000391e+00 7.897562999999999889e+00 1.344068299999999994e+01 9.357383000000000450e+00 5.581992999999999761e+00 4.336492999999999931e+00 1.145748299999999986e+01 7.753729999999999789e-01 3.875913000000000164e+00 8.595292999999999850e+00 5.412473000000000312e+00 1.093998299999999979e+01 6.489173000000000080e+00 9.610182999999999254e+00 1.354823000000000111e+00 5.638753000000000348e+00 1.267078300000000013e+01 7.513733000000000217e+00 1.745929999999999982e-01 9.480783000000000627e+00 2.493132999999999821e+00 6.088783000000000278e+00 2.623762999999999845e+00 7.886593000000000409e+00 4.303893000000000413e+00 4.461262999999999757e+00 4.681243000000000265e+00 1.080828299999999942e+01 1.243532999999999999e+00 7.239182999999999701e+00 8.229623000000000133e+00 1.060798300000000083e+01 9.160282999999999731e+00 1.146088300000000082e+01 5.498463000000000100e+00 5.662213000000000385e+00 9.361783000000000854e+00 9.558783000000000030e+00 3.072343000000000046e+00 8.032272999999999996e+00 6.121382999999999797e+00 2.331513000000000169e+00 4.389372999999999969e+00 1.036812999999999985e+00 7.580842999999999776e+00 1.074643000000000015e+00 2.902963000000000182e+00 1.291078300000000034e+01 1.132578299999999949e+01 1.167198300000000089e+01 3.182229999999999781e-01 2.468033000000000143e+00 1.103238299999999938e+01 4.795313000000000159e+00 6.448230000000000350e-01 4.963892999999999667e+00 5.385630000000000139e-01 1.055928300000000064e+01 4.627733000000000096e+00 1.203738300000000017e+01 1.245488300000000059e+01 1.704212999999999978e+00 9.086382999999999655e+00 3.833613000000000159e+00 9.742582999999999771e+00 1.329068299999999958e+01 6.279529999999999834e-01 9.205683000000000504e+00 7.535702999999999818e+00 1.021582999999999908e+00 6.287123000000000239e+00 1.141578299999999935e+01 1.996313000000000004e+00 9.251383000000000578e+00 1.032402999999999960e+00 8.001803000000000665e+00 1.407683000000000018e+00 7.017299999999999927e-02 5.315183000000000213e+00 1.299448300000000067e+01 9.953583000000000069e+00 9.236582999999999544e+00 1.333888299999999916e+01 3.427483000000000057e+00 9.007583000000000339e+00 7.607422999999999824e+00 7.496482999999999564e+00 8.737230000000000274e-01 4.373592999999999620e+00 7.344833000000000389e+00 9.363329999999999709e-01 1.821202999999999905e+00 4.393003000000000213e+00 3.811163000000000078e+00 4.834972999999999743e+00 1.350978300000000054e+01 1.319728300000000054e+01 1.240678300000000078e+01 9.663683000000000689e+00 5.719472999999999807e+00 5.722233000000000125e+00 2.935093000000000174e+00 1.032168300000000016e+01 1.100128300000000081e+01 1.037218299999999971e+01 5.340683000000000291e+00 1.373232999999999926e+00 4.631783000000000428e+00 7.105802999999999869e+00 7.811173000000000144e+00 5.956093000000000082e+00 1.266368300000000069e+01 5.004213000000000022e+00 9.135683000000000220e+00 7.998732999999999649e+00 3.022982999999999976e+00 1.720642999999999923e+00 4.831493000000000038e+00 2.861933000000000060e+00 5.380129999999999635e-01 8.808332999999999302e+00 3.292902999999999913e+00 3.873962999999999823e+00 1.341518300000000075e+01 1.300588300000000075e+01 7.388722999999999708e+00 1.189888299999999965e+01 4.433182999999999652e+00 4.167830000000000146e-01 1.295888300000000015e+01 5.873230000000000395e-01 1.355548300000000062e+01 2.413302999999999976e+00 8.820152999999999466e+00 9.081182999999999339e+00 2.574783000000000044e+00 3.623253000000000057e+00 8.887983000000000189e+00 1.311348300000000044e+01 1.275538300000000014e+01 3.323602999999999863e+00 1.950429999999999942e-01 7.383153000000000077e+00 3.747352999999999934e+00 7.337782999999999944e+00 9.210582999999999743e+00 4.072932999999999915e+00 2.220053000000000054e+00 1.349108299999999971e+01 7.693043000000000298e+00 3.772943000000000158e+00 5.540022999999999698e+00 8.286042999999999381e+00 1.148648299999999978e+01 7.921653000000000056e+00 1.355738299999999974e+01 4.815203000000000344e+00 1.295708300000000079e+01 4.193432999999999744e+00 1.822273000000000032e+00 1.217808300000000088e+01 2.701613000000000042e+00 4.886053000000000424e+00 8.962683000000000177e+00 9.412782999999999234e+00 3.785003000000000117e+00 1.262848299999999924e+01 1.058932999999999902e+00 4.692112999999999978e+00 1.540732999999999908e+00 1.088798300000000019e+01 6.027833000000000219e+00 4.412462999999999802e+00 6.312642999999999560e+00 1.247058299999999953e+01 9.492483000000000004e+00 5.840103000000000044e+00 5.191112999999999644e+00 1.124278299999999930e+01 2.556763000000000119e+00 9.352083000000000368e+00 1.306578299999999970e+01 7.298033000000000214e+00 1.240738299999999938e+01 1.189908299999999919e+01 5.501203000000000287e+00 1.629623000000000044e+00 8.460563000000000500e+00 1.119298299999999990e+01 2.321302999999999894e+00 1.262763000000000080e+00 1.180628300000000053e+01 9.790882999999999114e+00 2.740642999999999940e+00 1.065388300000000044e+01 1.148878299999999975e+01 2.077763000000000027e+00 1.079402999999999890e+00 3.077682999999999947e+00 7.245430000000000481e-01 4.797432999999999836e+00 5.391230000000000189e-01 3.724152999999999825e+00 3.184273000000000131e+00 3.177223000000000130e+00 7.156522999999999968e+00 6.606202999999999825e+00 1.129998299999999922e+01 7.069462999999999830e+00 8.526512999999999565e+00 1.745352999999999932e+00 1.142778299999999980e+01 6.921352999999999867e+00 5.417283000000000293e+00 6.439822999999999631e+00 6.705862999999999907e+00 9.746183000000000263e+00 1.058118299999999934e+01 1.272848300000000066e+01 1.032168300000000016e+01 1.363698300000000074e+01 1.474842999999999904e+00 7.023012999999999728e+00 1.081918300000000066e+01 1.313098300000000052e+01 1.105648300000000006e+01 8.864383000000000123e+00 1.010968300000000042e+01 9.007782999999999873e+00 8.491633000000000209e+00 1.154548300000000083e+01 8.590063000000000670e+00 7.277430000000000287e-01 1.149318300000000015e+01 1.321428300000000000e+01 8.111862999999999602e+00 1.200748300000000057e+01 1.217378300000000024e+01 6.794272999999999563e+00 1.899353000000000069e+00 1.364718300000000006e+01 1.206608300000000078e+01 1.308678300000000050e+01 1.171388299999999916e+01 9.265083000000000624e+00 3.461152999999999924e+00 7.726473000000000368e+00 9.316729999999999734e-01 7.702622999999999998e+00 7.121832999999999636e+00 6.598202999999999818e+00 1.206798299999999990e+01 4.961752999999999858e+00 3.571572999999999887e+00 1.204238299999999917e+01 1.188622999999999985e+00 1.912903000000000020e+00 9.949382999999999200e+00 1.125043000000000015e+00 6.171063000000000187e+00 1.462829999999999964e-01 1.472803000000000084e+00 1.153508300000000020e+01 5.617962999999999596e+00 4.742042999999999786e+00 2.313683000000000156e+00 7.936403000000000318e+00 9.231483000000000771e+00 1.503813000000000066e+00 1.058318300000000001e+01 5.038382999999999612e+00 6.296129999999999782e-01 9.976283000000000456e+00 5.585903000000000063e+00 9.876583000000000112e+00 2.342363000000000195e+00 1.071703000000000072e+00 1.051058300000000045e+01 7.722373000000000154e+00 9.532083000000000084e+00 1.128878300000000046e+01 9.248182999999999154e+00 1.051028299999999938e+01 8.859973000000000098e+00 2.830802999999999958e+00 6.456832999999999601e+00 5.628623000000000154e+00 5.965493000000000379e+00 6.387703000000000131e+00 9.992383000000000237e+00 1.226428300000000071e+01 9.205083000000000126e+00 1.321398300000000070e+01 2.074692999999999898e+00 3.055483000000000171e+00 1.012898299999999985e+01 6.863529999999999909e-01 1.294308299999999967e+01 3.808743000000000212e+00 3.533822999999999936e+00 4.914712999999999887e+00 1.692782999999999927e+00 1.245732999999999979e+00 8.038030000000000452e-01 6.586863000000000135e+00 4.709513000000000282e+00 9.955482999999999194e+00 3.436082999999999998e+00 9.533583000000000141e+00 7.822173000000000265e+00 1.044472999999999985e+00 6.321823000000000192e+00 3.697633000000000170e+00 1.189082999999999890e+00 1.178388299999999944e+01 1.701762999999999915e+00 8.493530000000000246e-01 4.850303000000000253e+00 1.260998299999999972e+01 9.938083000000000666e+00 2.676673000000000080e+00 1.153538299999999950e+01 4.986812999999999718e+00 1.295178300000000071e+01 5.231103000000000058e+00 1.160429999999999934e-01 6.886713000000000306e+00 1.890273000000000092e+00 1.816762999999999906e+00 1.297808299999999981e+01 1.199078300000000041e+01 6.201929999999999943e-01 1.251108299999999929e+01 2.765353000000000172e+00 6.364423000000000386e+00 7.652573000000000292e+00 7.356129999999999614e-01 8.627663000000000082e+00 3.407143000000000033e+00 1.021188300000000027e+01 3.268583000000000016e+00 1.193818300000000043e+01 8.323142999999999958e+00 2.759933000000000192e+00 4.049530000000000074e-01 2.306483000000000061e+00 1.112778300000000087e+01 3.418213000000000168e+00 1.200148300000000035e+01 1.594613000000000058e+00 7.771912999999999627e+00 1.048258299999999998e+01 1.365738299999999938e+01 7.005232999999999599e+00 1.034298300000000026e+01 1.502999999999999996e-03 4.169813000000000436e+00 1.267973000000000017e+00 3.781972999999999807e+00 2.397029999999999994e-01 1.133468300000000006e+01 1.281958299999999973e+01 1.027163000000000048e+00 9.861783000000000854e+00 5.642142999999999908e+00 1.143748300000000029e+01 2.781343000000000121e+00 1.294598300000000002e+01 1.975122999999999962e+00 3.054863000000000106e+00 8.056330000000000435e-01 7.942853000000000385e+00 5.862573000000000256e+00 7.970552999999999777e+00 9.319682999999999495e+00 5.081592999999999805e+00 5.802743000000000428e+00 8.013932999999999751e+00 1.084098299999999959e+01 6.275953000000000337e+00 1.998963000000000045e+00 7.311453000000000202e+00 1.053108300000000064e+01 7.183629999999999738e-01 7.517502999999999602e+00 1.045248300000000086e+01 4.728383000000000003e+00 5.230172999999999739e+00 9.978683000000000192e+00 1.019258300000000084e+01 8.562343000000000259e+00 1.368818300000000043e+01 8.271283000000000385e+00 3.763313000000000130e+00 1.283478299999999983e+01 1.342558299999999960e+01 1.185368300000000019e+01 8.843152999999999153e+00 4.730843000000000131e+00 6.797653000000000389e+00 2.498043000000000013e+00 2.210583000000000187e+00 3.473573000000000022e+00 6.136013000000000162e+00 1.997529999999999861e-01 9.014682999999999780e+00 4.294043000000000276e+00 4.794063000000000407e+00 1.180168300000000059e+01 1.429283000000000081e+00 1.024948299999999968e+01 6.390300000000000147e-02 4.868492999999999959e+00 8.374342999999999648e+00 4.389372999999999969e+00 6.939433000000000185e+00 5.934632999999999825e+00 1.239958299999999980e+01 1.188718300000000028e+01 4.177353000000000094e+00 8.180213000000000179e+00 7.691803000000000168e+00 8.595223000000000724e+00 8.527323000000000874e+00 2.063663000000000025e+00 4.320203000000000237e+00 3.953513000000000055e+00 3.866522999999999932e+00 7.950730000000000297e-01 8.361929999999999641e-01 1.218638299999999930e+01 9.898082999999999743e+00 8.192073000000000604e+00 1.270578300000000027e+01 4.129063000000000372e+00 1.280362999999999918e+00 2.566832999999999920e+00 3.260583000000000009e+00 3.470483000000000207e+00 4.598222999999999949e+00 9.192583000000000837e+00 6.301942999999999628e+00 2.258213000000000026e+00 4.935902999999999707e+00 8.837123000000000062e+00 7.909530000000000172e-01 1.285568300000000086e+01 1.056528300000000087e+01 6.076683000000000057e+00 4.758772999999999698e+00 6.644982999999999862e+00 3.663673000000000179e+00 7.261252999999999957e+00 1.116178299999999979e+01 3.378662999999999972e+00 9.802729999999999499e-01 6.319302999999999670e+00 7.673313000000000272e+00 7.121682999999999986e+00 2.914063000000000070e+00 6.373463000000000100e+00 2.951473000000000013e+00 1.203048300000000026e+01 1.077348300000000059e+01 6.194003000000000370e+00 1.006568299999999994e+01 1.142318299999999986e+01 1.168408299999999933e+01 5.420030000000000125e-01 8.986983000000000388e+00 1.195088299999999926e+01 1.264338300000000004e+01 4.328842999999999996e+00 1.037428300000000014e+01 1.173863000000000101e+00 4.879443000000000197e+00 2.691352999999999884e+00 2.154282999999999948e+00 2.901513000000000009e+00 9.931582999999999828e+00 7.441982999999999571e+00 1.207888299999999937e+01 1.280088300000000068e+01 9.460283000000000442e+00 4.476632999999999640e+00 7.507043000000000355e+00 1.142588300000000068e+01 1.021088300000000082e+01 1.018548299999999962e+01 4.952763000000000027e+00 1.204378299999999946e+01 1.467243000000000075e+00 8.604592999999999492e+00 6.400623000000000395e+00 1.167942999999999953e+00 3.725543000000000049e+00 8.752852999999999994e+00 8.662442999999999671e+00 8.510372999999999521e+00 7.716923000000000421e+00 6.187323000000000128e+00 1.198148300000000077e+01 8.578703000000000856e+00 1.244238299999999953e+01 7.610092999999999996e+00 1.364428299999999972e+01 1.102538299999999971e+01 1.818653000000000075e+00 3.477332999999999785e+00 7.732853000000000421e+00 5.081813000000000358e+00 4.712733000000000061e+00 3.549183000000000199e+00 5.351613000000000397e+00 1.231668299999999938e+01 8.797432999999999836e+00 9.453583000000000069e+00 1.085078299999999984e+01 3.444002999999999926e+00 1.257518300000000089e+01 3.096130000000000271e-01 3.192772999999999861e+00 7.724933000000000050e+00 1.031668299999999938e+01 7.909642999999999979e+00 1.127793000000000045e+00 4.945503000000000426e+00 1.138878300000000010e+01 6.337893000000000221e+00 8.331322999999999368e+00 7.335030000000000161e-01 8.750930000000000097e-01 4.413299999999999862e-02 7.680893000000000193e+00 1.368762999999999952e+00 9.002029999999999754e-01 1.090998300000000043e+01 6.625742999999999938e+00 8.304392999999999248e+00 4.799933000000000227e+00 2.828243000000000062e+00 1.239738299999999960e+01 1.120328300000000077e+01 7.927133000000000429e+00 7.619493000000000293e+00 1.152658300000000047e+01 1.284578300000000084e+01 1.302838299999999983e+01 6.169592999999999883e+00 6.325722999999999985e+00 1.171128299999999989e+01 6.753103000000000300e+00 7.557930000000000481e-01 4.773172999999999888e+00 6.051912999999999876e+00 1.027818300000000029e+01 1.082898299999999914e+01 2.915530000000000066e-01 1.161498300000000050e+01 5.800753000000000270e+00 8.855142999999999986e+00 3.945952999999999822e+00 1.065598300000000087e+01 1.226618299999999984e+01 9.020383000000000706e+00 9.395182999999999396e+00 1.255518299999999954e+01 5.200822999999999752e+00 7.002832999999999863e+00 2.981123000000000189e+00 2.981299999999999922e-02 3.012932999999999861e+00 1.207338299999999975e+01 8.887683000000000888e+00 3.655653000000000041e+00 2.539242999999999917e+00 2.741963000000000150e+00 1.221398300000000070e+01 7.509822999999999915e+00 1.136748300000000000e+01 2.152792999999999957e+00 4.276292999999999900e+00 1.354578300000000013e+01 2.120312999999999892e+00 5.174673000000000300e+00 3.999300000000000077e-02 2.082152999999999921e+00 9.219982999999999151e+00 3.979693000000000147e+00 1.761312999999999906e+00 4.756693000000000282e+00 1.276168299999999967e+01 1.609803000000000095e+00 7.169729999999999714e-01 8.117872999999999450e+00 8.864983000000000501e+00 3.031203000000000092e+00 1.024738299999999924e+01 7.458363000000000298e+00 1.368358300000000050e+01 2.520330000000000070e-01 1.331568299999999994e+01 1.359158299999999997e+01 9.907982999999999763e+00 8.406193000000000026e+00 1.061068299999999986e+01 7.591923000000000421e+00 1.046908299999999947e+01 1.035088299999999961e+01 5.077193000000000289e+00 2.868222999999999967e+00 1.079638300000000051e+01 5.720523000000000025e+00 1.893029999999999990e-01 4.030772999999999939e+00 3.636912999999999840e+00 8.525313000000000585e+00 3.902842999999999840e+00 5.749863000000000390e+00 1.226588300000000054e+01 1.109218300000000035e+01 8.472172999999999732e+00 6.407492999999999661e+00 3.646962999999999955e+00 6.814593000000000345e+00 5.406873000000000040e+00 2.164263000000000048e+00 1.253458299999999959e+01 6.270592999999999861e+00 6.042423000000000322e+00 8.029629999999999823e-01 1.143248299999999951e+01 1.220158299999999940e+01 8.896083000000000851e+00 1.190918300000000052e+01 6.648683000000000121e+00 4.514429999999999832e-01 1.243328299999999942e+01 2.516033000000000186e+00 5.623522999999999605e+00 3.047992999999999952e+00 1.312518299999999982e+01 1.276468299999999978e+01 1.229038300000000028e+01 8.370222999999999303e+00 1.251018299999999961e+01 7.591352999999999795e+00 7.238729999999999887e-01 2.065282999999999980e+00 7.197483000000000075e+00 1.134848299999999988e+01 7.463383000000000322e+00 5.298932999999999893e+00 1.180388300000000079e+01 4.111572999999999922e+00 4.584423000000000137e+00 1.219398299999999935e+01 1.345798300000000047e+01 8.812193000000000609e+00 6.577033000000000129e+00 8.417063000000000628e+00 5.125473000000000390e+00 9.608083000000000595e+00 5.844153000000000375e+00 6.823332999999999871e+00 1.260238299999999967e+01 4.240433000000000341e+00 8.429562999999999917e+00 1.307568299999999972e+01 4.743402999999999814e+00 4.122123000000000204e+00 5.936202999999999896e+00 1.232238300000000031e+01 1.280088300000000068e+01 1.072048299999999976e+01 1.131288299999999936e+01 4.218923000000000201e+00 6.112083000000000155e+00 3.558943000000000190e+00 1.316958299999999937e+01 4.740382999999999569e+00 2.283703000000000038e+00 7.958103000000000371e+00 1.150142999999999915e+00 1.300118299999999927e+01 4.994633000000000322e+00 9.738630000000000342e-01 1.340438299999999927e+01 6.780242999999999576e+00 1.166628299999999996e+01 2.880802999999999781e+00 4.505283000000000371e+00 4.494032999999999944e+00 7.033273000000000330e+00 6.763130000000000530e-01 6.284729999999999484e-01 1.000728299999999926e+01 2.296632999999999925e+00 6.755663000000000196e+00 1.280428299999999986e+01 6.740183000000000035e+00 3.096312999999999871e+00 5.244222999999999857e+00 1.173188299999999984e+01 3.813222999999999807e+00 1.034448300000000032e+01 7.451233000000000217e+00 7.525802999999999798e+00 1.189832999999999918e+00 8.343842999999999677e+00 8.523013000000000616e+00 1.050058300000000067e+01 1.267293000000000003e+00 1.561822999999999961e+00 1.255108300000000021e+01 1.129228299999999940e+01 1.343518300000000032e+01 3.387553000000000036e+00 1.033088300000000004e+01 5.385582999999999565e+00 2.499802999999999997e+00 8.285042999999999935e+00 6.052533000000000385e+00 1.182338299999999975e+01 8.104803000000000424e+00 9.218182999999999794e+00 2.218262999999999874e+00 9.358482999999999663e+00 1.038078299999999921e+01 6.949902999999999942e+00 1.715082999999999913e+00 8.507732999999999990e+00 8.901029999999999776e-01 9.860182999999999254e+00 1.392903000000000002e+00