-7.790411038766198908e+04
-7.790251602574368007e+04
-7.790373374710153439e+04
-7.790118161551539379e+04
-7.790206619972486806e+04
-7.789400513889220019e+04
-7.790404032714202185e+04
-7.790569954109146784e+04
-7.790124201829517551e+04
-7.789429315586407029e+04
-7.789821854319676640e+04
-7.790255804375102161e+04
-7.789984112958650803e+04
-7.789678552475597826e+04
-7.789916957569321676e+04
-7.789824057704415463e+04
-7.790516862037386454e+04
-7.789601965806476073e+04
-7.789453728015224624e+04
-7.790049585732414562e+04
-7.790084712682283134e+04
-7.790092212906455097e+04
-7.789731646736369294e+04
-7.790906209997771657e+04
-7.789888768908960628e+04
-7.790300412968828459e+04
-7.789575287515499804e+04
-7.789888222473331552e+04
-7.790096095751665416e+04
-7.790269870825264661e+04
-7.790365595882986963e+04
-7.790175807961272949e+04
-7.790330093872291036e+04
-7.789872311889364209e+04
-7.789471337204903830e+04
-7.789829415815669927e+04
