6.065500253583523405e-01 1.527405096869552947e-01 1.733134504428837541e+00 -1.202494763520387255e-01 1.875337089827869563e-01 8.441672854010564553e-01 -1.672366476188689388e+00 1.096720599162934073e+00 -2.678301415222170245e+00 -6.895154174660060864e-01 1.055305780238176228e+00 -6.333033844042604832e-01 4.627523274262048542e-02 1.292552801395050688e+00 -1.052317643897126898e+00 1.836974170607831081e+00 -9.407322716941742824e-01 4.922469968892759229e-01 1.102812571496854632e+00 -2.873339146511777020e+00 -5.328596315614034795e-01 -3.069876859509668710e-01 3.104072534381425719e-01 1.531933838352192989e+00 -1.269631414817478321e+00 -1.642025913715632779e+00 3.032672993690547214e-01 8.274371157476336780e-01 -9.842903623913455691e-02 -7.726175922731469692e-01 1.055752638004545441e+00 4.308109959926102461e-01 3.810046098763904543e-01 2.626301363707410630e+00 -9.607920202166887469e-01 -5.516091458046213925e-01 -7.592339707710836771e-01 -6.218234078401706499e-01 7.165906786543160267e-01 -1.234960085821565690e+00 -6.243677717388992354e-01 -1.339845676853027578e+00 1.836975199049180718e+00 1.092317841745611279e-01 2.815059946337483132e-01 1.150635094249837787e+00 -1.763372736987616207e+00 -1.591375691472126430e+00 -1.045356124402181841e+00 1.225110188796475208e-01 -2.360632851635695653e-02 1.775012636181557413e-01 -1.516359636775637676e-01 -5.465312166413341943e-01 8.018983459355165655e-01 8.462838176983820127e-01 -7.692612739289672596e-01 2.258539478868197836e-01 1.088513122973037817e+00 5.929663720138059757e-01 -2.914278825533054285e-01 1.771490224559428908e-03 -7.703226254016786179e-01 -1.687250593619711858e-01 9.006210021799407883e-01 4.555167283116111077e-01 -1.016511944092686193e+00 1.033520821351830543e+00 3.369328127251305371e-01 -5.446908208463564494e-01 -6.064939753048030902e-01 3.615917509627279425e-01 -7.105789247456587576e-01 -2.061610443936811699e+00 -1.843301141790118614e+00 -6.945218699555012754e-02 -1.427564524878192964e+00 -1.045542272286446028e+00 -5.934471683447096746e-01 1.221479790832646732e-02 -4.922351698137563680e-01 1.422401235082895177e-01 -1.012071648566105431e+00 9.348644995744506137e-01 -1.311442183661804428e+00 2.779074783517550551e-01 -1.030116166264222866e+00 -7.994100320903371193e-01 1.722101385631117143e+00 -1.069916332270224535e+00 1.779913673432726329e+00 1.702216472138021741e+00 -3.440758521182670227e-01 -1.547058096838329844e+00 7.244978499701506536e-01 -9.644872099855376080e-01 5.121154553207788451e-01 -1.296995668025005211e+00 -4.361943722367068177e-01 -2.134129443036649754e+00 -1.241051029714136167e+00 1.687992099832720694e+00 -1.428296775119056061e+00 1.148882115969569739e-01 9.049414842893017674e-01 7.271594561827253722e-01 -2.905598780543050541e-01 2.902847699933067016e+00 2.835440054340375493e+00 -5.949980578997957625e-01 -2.245699388619359638e-01 -2.369954644027803869e+00 1.936331375164913382e+00 -1.706639798382335371e+00 -1.419834245474477008e+00 -2.038175350905150895e-01 2.562212498349640821e-01 -2.400212416972223595e-01 -1.192297767539831632e+00 9.306972552261690845e-01 7.818920763631771464e-01 -4.222019134557238318e-01 -6.853265758493846116e-01 -7.071593572584831122e-01 -1.624201996686988614e-01 -1.952804434480954476e-01 8.870980268750165987e-01 1.584756128725899049e-01 1.150998134046220533e+00 -1.772736695475055413e+00 1.332610077738433763e+00 1.220452377924469811e+00 3.034890827460801077e+00 6.985770141966843871e-01 -3.126723955104747654e-01 2.695506724779074048e+00 1.259939897760215199e+00 -1.545950979725564389e+00 2.557867333647891872e-01 7.796639581794279072e-01 1.053373338942415804e+00 4.049040441773624766e-01 -9.759533025914087778e-01 1.069180996705313191e+00 8.940292073501507342e-02 -1.720361262867718122e-01 -2.053776291956793010e+00 -4.997263366037076326e-01 9.463203077668265809e-03 8.004960661554371137e-01 -7.186722439457576828e-01 1.949239856763495649e+00 -5.097469548928191402e-03 -3.921894237731661237e-01 1.439603459315750511e+00 1.314069851309844550e+00 7.427583403516687666e-01 -3.028116998512144775e-01 1.082633009557119941e+00 -2.724731942608569213e-01 6.006416298053224301e-01 -5.705391515046811524e-01 -2.621239889605714857e-01 8.145605158308870664e-01 3.952356670504637015e-01 -1.061861579620732909e+00 1.022703161016835782e+00 -7.340284159562129318e-01 3.156585778129599174e+00 8.084454035666024385e-01 -3.350507650554970102e-02 1.475007038552526017e+00 -3.307976458545301424e-01 9.721115599302525556e-01 1.859627648213851847e-02 -3.777238819714008877e-01 -5.705201253397149674e-01 -8.637380100618713419e-01 2.912602466133325518e-01 -5.033449074920166577e-01 2.739109552674949821e-01 1.535077783557695197e+00 -2.981821711163208377e-01 5.520256645511796290e-01 5.004632148306432660e-01 8.780616269574019750e-01 -5.359238725623176602e-01 -1.544330670379385317e+00 -1.328129158778546849e-02 -7.776965498777836938e-01 -9.373271023858918971e-01 -1.016187985067585231e+00 -8.253128701401867273e-01 7.764547069482303776e-01 1.477148767662915141e+00 -1.449051235773175739e+00 7.216716931416518044e-01 -4.915054906762673093e-01 -9.417663694711231326e-01 -1.750453456754864079e-01 1.684242402672346817e-01 -4.162935179026939214e-01 -5.594119303234791341e-01 -1.086933951280839805e+00 2.465137919367832997e-01 9.412444354862384843e-01 1.913126138774871920e+00 -3.597395280922306426e-01 -1.239533564502909968e+00 1.177375083558201835e-01 3.703103625033389301e-01 1.780653122763036000e+00 -1.163862906887447757e+00 2.756606939575119153e+00 -3.352065739199502903e-01 -3.572861812529351533e-01 -6.886381569948600845e-01 -1.878028520839580384e+00 1.033866377645271395e-01 2.496201990330281506e-01 9.415401123742273004e-01 -1.855368358364787973e+00 -2.765324522674380767e-02 -9.010719737117083294e-01 -5.400160406920836431e-01 -3.889791441006191230e-01 -5.449309619014709449e-01 1.689641719757360994e-01 -1.815841757757760133e+00 1.317266247024172943e+00 6.521680840786253652e-01 -7.759641404245062324e-01 -1.536938748179663417e-01 5.348769192684996732e-01 -2.887750180922017407e-01 2.277894745066286891e-02 -2.579839983080525201e-01 7.834943879857394489e-01 -7.646682548619817554e-01 -1.580549803606335624e-01 -1.828800118761794380e+00 -1.112542140884050124e+00 4.583351718299884942e-02 5.279503667794386255e-03 9.138369877420314535e-02 1.546795844294200251e+00 -1.313684185803771998e+00 2.511653293165567735e+00 1.446453907144946482e+00 1.917915590139616766e+00 3.261856006225784255e-02 1.547062210603727728e+00 8.379179615406585624e-01 -1.665823018102327024e-01 3.340495259796655070e+00 1.053928183050485190e+00 4.137656090655577601e-01 -1.013812799770853923e+00 -1.061289766230395948e+00 7.641694608074615092e-01 -7.109635618103816723e-01 1.166798592719671346e+00 9.638758016032443754e-01 -1.206734512983810070e+00 6.284290866281795618e-02 6.410670881518361064e-01 -9.725548181518987034e-01 -1.370318908260173218e+00 6.916674309898903639e-01 -6.156075083236324241e-01 5.013795560730713863e-01 -1.469885914852558706e+00 2.152327198495846972e+00 9.117183985620067599e-01 -9.014118735777268965e-01 1.809934390646079860e+00 8.648811226218700021e-01 -1.053674158037152253e+00 1.910802889766291535e-01 1.445035172303274829e+00 1.641592939907481896e-01 -6.363403717094122669e-01 6.770707629160604979e-01 5.372778155989693660e-01 6.813886739220476052e-01 2.064412946614271327e+00 1.330773281488179638e+00 -1.585566540509326217e+00 -2.541830847684724670e+00 -6.044473770192454465e-01 2.327969040154058700e+00 4.939146145375332142e-01 6.853805690202348089e-01 1.109211019352933869e+00 1.572394263704590123e-01 -9.370489090008449207e-02 6.562628233117652199e-01 -1.050237107047034657e+00 3.629184403036170847e-01 -1.310449737759511235e+00 -3.764866670279205102e-02 -9.986726004437990190e-01 -1.346990773128863284e-01 -1.718180452986047158e+00 -2.191927332659365513e-01 -9.777880419589640715e-01 7.788545748373505440e-01 3.417407760341670819e-01 5.044247709090194931e-01 -1.547812458568207372e+00 9.982072307331384398e-01 4.527281095923699206e-01 8.096095991742663367e-01 -1.774687134494432383e+00 -1.841599071356652129e+00 -8.850442295000122694e-01 -2.724269144001282283e-01 2.687846893607800380e-01 8.018191559516030242e-02 5.352929237943832019e-01 8.026285392936802765e-01 -1.018629504831361388e+00 3.786705622336400401e-01 -1.783717363763950070e+00 5.673041892397455710e-01 -1.173929805037288027e-01 -1.003998898192997036e+00 -4.677634079017728430e-01 -1.760593888461195744e-01 -3.178793940631274850e-01 9.358728863176614121e-01 -2.073600527410266459e+00 -9.190167325989216929e-01 1.352096984429262405e-01 1.980263818513312790e+00 6.836779843660937273e-01 7.253982503716611685e-01 4.665601315228268264e-01 -6.516574629485853976e-01 -1.349166955024461156e+00 -1.437737352487034714e+00 7.607241822865475900e-01 6.229732052689413574e-02 4.860228698419414850e-01 6.674738624629537875e-02 4.140875112079595022e-01 1.995697123624981861e+00 1.072525487973973318e-01 -1.432263987624854407e-01 -8.257484150517112598e-01 3.826701706419486371e-01 -1.421693153213746008e+00 -4.569915132068321229e-01 3.909882042769191046e-01 -2.804955510078385728e-01 -5.946180488211455506e-01 -8.963318875317405343e-01 -1.071726903266065900e+00 -4.302684931807350122e-01 1.006098975428730169e+00 -3.634172343581374975e-01 -7.365918060199078132e-01 2.453213141920072560e-01 -9.393587882718814619e-01 1.173955516071026439e+00 2.063994370985014204e-01 8.790859545415302678e-01 -1.014336276417762833e-01 -1.412406842048196332e+00 -2.289392719353993411e-01 -6.080407510944909610e-01 5.749439658047034163e-01 1.311776941321075082e-03 3.159592940635614911e-01 -4.835422693068834876e-01 2.496098631974653426e+00 -1.811180861561706212e+00 6.243898832279142219e-01 3.402598204908488522e-01 -4.179930172327864235e-01 -7.333259905144863255e-01 -7.018901380041839833e-01 3.849785072509609440e-01 -8.086788597529448452e-01 -9.007922376646371188e-01 8.837180543797976684e-01 1.100790141583010584e+00 -5.260940301435431538e-02 4.506141483984181795e-01 4.367785269232378753e-01 5.251324374817358809e-01 -1.161768486079136908e-01 -1.338543670104527017e+00 3.928095739069306092e-01 -7.023395668739270681e-01 -1.000539735713864703e-01 -2.718720702920586207e-01 -1.834294566671639704e+00 9.669014760535511455e-01 -3.488791874412305871e-01 3.921189755407235578e-01 -2.013630569657351099e+00 -3.301908654583094460e-01 -1.209742189710500515e+00 1.341036097715104514e-01 1.348137485233585342e-01 -2.316271034023869302e-01 7.798866157316004522e-01 7.848339328434976725e-01 2.823117784311023892e-01 1.921598952832945795e+00 1.624017905685423369e+00 3.425943823542740296e-01 -5.272654248406538624e-01 -3.885965639185952336e-02 4.165722255084156611e-01 -6.071948580845054622e-01 -8.808394470424731060e-02 3.102571010011117014e-01 -9.404221966272920119e-02 -4.791030022216523077e-01 1.149906957774373018e+00 2.621779821314217385e-01 7.582595225924072813e-02 -2.265460889150511248e-01 -9.544141411876003178e-02 -1.238612081053734437e+00 -3.846272945300976409e-01 -1.185165526780865286e-01 1.423324775414769983e+00 7.246449170831329445e-01 -4.975136450402012356e-01 5.249560597902921399e-01 -9.709051982272579040e-02 1.275961471323814100e+00 2.306433992515647888e-02 3.089324685429215567e-01 -1.120948620475079816e+00 5.818340086258562138e-01 -9.582039475606055068e-02 -1.152351562862197421e+00 -7.992038295997569985e-01 -6.424472564429007937e-01 1.486696817151919259e+00 -5.176680101668724721e-01 1.091263689362346606e-01 -5.278398093343644737e-01 -5.034091850763620091e-01 -1.795087811324315163e-01 -9.096100937954774979e-02 -1.461566338555564171e+00 8.625537598478914825e-02 -2.835284245475922504e-01 -1.419075255758526444e+00 -5.047986093395724350e-01 -1.890691719176300190e+00 1.359078044309848243e+00 7.984396976770588017e-01 2.289962990082305971e+00 1.293285051635913563e+00 1.041322577429338730e-01 3.114043273265085232e-01 4.098127947386525638e-01 -1.475980972510527733e+00 4.147755384707928206e-02 -2.445237579254494475e-01 1.472316635982164751e-02 -3.490298540989362208e-01 -3.263264970874635851e-01 -9.908189080781399927e-01 3.368001437910416729e-01 -2.978350721608556406e-01 4.345236692644010024e-01 -3.725472224385591447e-01 -1.276879355228266233e+00 -1.731689544332752906e-01 2.269641503236336788e-01 1.115921599158594235e+00 3.929381290756214229e-01 -1.996549187283064963e+00 6.622180129461985310e-01 1.336408111642235080e-02 9.242422430958661117e-01 -2.216363099124115388e-01 -1.091321282077919896e+00 3.989303425986376883e-01 -5.065181632759807595e-01 6.790284010248842650e-01 2.410517399294479224e-01 -5.437960768722683857e-01 -3.864090691681523193e-01 1.004195330490756488e+00 -2.587938958708047021e-01 2.272585930820031574e+00 -2.631267192763598987e-03 -4.007830796898097514e-01 -5.532130000892079291e-01 6.629271232566971150e-01 -3.093597859236498215e-01 -2.111750045050277691e-01 -1.539710397616637638e-01 -4.136555658411584235e-01 2.871860762071833384e-01 6.045224532377607707e-01 -7.249894449352244086e-02 5.757795744011935390e-01 -4.189818635903562460e-02 3.298303967653004043e-01 -6.721224173628137510e-02 7.949224282616781379e-01 9.609750827769047987e-01 9.234786253938424838e-02 -1.332345768311605496e-03 8.072950919171568707e-01 1.251686655930264847e+00 -1.719379101378920582e-01 -3.987488227004462593e-01 4.651403682398054795e-01 -7.805155076168358574e-01 -1.822855727761531208e-01 6.282182561515264885e-02 7.871803217824425714e-01 5.318877544861008166e-01 -1.277907796577793187e+00 1.918968714081532023e-01 -6.657733346915116757e-01 1.186461362881268897e-02 -5.248244192975527467e-01 8.702752975001367686e-01 -1.015886651752174075e+00 -7.512774342704716668e-01 5.162837281104096787e-01 1.893833607499103844e-01 3.614971343585714203e-02 1.736619892162382994e+00 -7.767282723472045403e-01 1.785854979108940865e+00 8.074241613065225032e-02 -1.918548595790250388e+00 1.571618818927047245e+00 -4.831684308763306568e-01 1.673428341882075565e-01 -9.093211017762605763e-01 -9.169289966593827668e-01 9.268236308831775405e-01 7.921101553913979521e-01 8.649654548125312870e-02 -1.064753042474926525e+00 -1.811661143671934870e-01 6.626077922176690782e-01 -5.555542468214050844e-01 5.894048796203956719e-01 1.015127662036223510e+00 1.819554431029551111e-01 -9.407939781751457620e-01 -3.508404250947776415e-01 2.007640927237708262e-01 -2.666635290773816114e-01 -1.455594693859538324e+00 2.796866818864359172e-01 3.397682255257751804e-01 -5.903417896898144335e-01 -3.468757836923529458e-01 -3.871927414764915754e-01 -6.517320249464261250e-01 -3.880936560986767425e-01 -6.980072576890465896e-01 1.417548534575154395e+00 4.026512434012246566e-01 -1.070294798686850291e+00 -6.882627759022829084e-01 -1.705799047579097616e+00 2.036793125731386933e+00 1.715589295005915116e-01 -2.548981600387981716e-01 -4.780935870370919827e-01 -6.203815330681344831e-01 9.514769126933524390e-01 5.771916243740934371e-01 -7.726474170722832935e-02 5.774477062701256491e-01 8.898074556103442445e-01 1.134329670873769624e-01 -1.517074403513558878e-01 1.137985779871336200e+00 1.578431214426311013e-01 -1.580652647741288552e-01 -1.181823092394904240e+00 -1.294617397404224934e-01 5.162204789674138539e-01 -1.431035000212170227e-01 -9.013779350131925217e-01 -6.494488851504772731e-01 -8.266431590257994344e-01 -6.571411122242608593e-01 6.765292885455348459e-01 -2.362757611463817575e+00 -8.097648938180449507e-01 -5.963324605508064646e-01 6.734953865644315307e-01 -1.565548958082141784e+00 -6.350723035254460802e-01 -1.854583143394424039e-01 -2.733000611058762352e-01 -5.076993281659119006e-01 5.455367138563420315e-02 4.921770628775080647e-01 9.185215380891247061e-02 -1.165522811225583766e+00 9.710059854795114465e-01 2.018276039233162233e+00 -8.006467328131428030e-02 -8.256625401990258517e-01 2.484174368747568695e-01 3.504984683460601325e-01 -1.725079751779346138e+00 -7.084402809593183248e-01 -1.302101879325404221e+00 -7.977419002214051202e-01 -8.576892322646310907e-02 -8.243024265142769869e-01 -5.252419664854605097e-01 1.129136042058660472e-01 1.424533708221138451e+00 5.858999515012093262e-01 1.915038011243641591e+00 7.234385553801384594e-01 -7.688956630292105299e-01 3.788268853187680696e-01 -1.029685763559446132e-01 -1.368258940237071508e+00 1.188782555007150021e+00 -2.471674692585423383e+00 -3.901906480103613239e-03 -3.592376487136616503e-01 4.096518436674516095e-01 -9.122398183262168114e-01 4.058394115847568373e-01 -1.592896242007401653e-01 -8.116289437640616944e-01 -2.115066768402501296e+00 -8.956865405849125938e-01 -7.989955702264779358e-01 6.120290466479548774e-01 -9.041809519113268578e-01 1.286331245451090011e+00 -2.052599240832260197e-01 -2.564994432200110586e-01 7.866337052051691758e-01 -2.952259164571068295e-01 1.648442359295328730e-01 1.358550453897541255e-01 2.396967684514467456e-01 9.890685009012457618e-01 9.500535498656076383e-01 5.753203753386301189e-01 -1.269567651453807677e+00 -9.703292710715230029e-01 1.515871127134612861e-01 -3.574337625865921519e-01 -1.140094084637865546e+00 9.764855209897888022e-01 -3.121514899669395882e-01 7.763343793103358870e-01 -1.099306100715643941e+00 -2.042147191397022610e+00 5.093129526433189946e-01 -8.889070552088339516e-01 -4.210659999851717461e-01 6.391685854206101691e-01 -1.452519140003779262e-02 1.183766332324834414e+00 7.110689770487081951e-01 2.420903628483347614e+00 9.701801470758418533e-02 -8.585685496184762566e-02 -4.198221001729193769e-01 -5.228446696997142151e-01 -9.141414063814913282e-01 1.330074969811851027e+00 -2.547222965680291940e-01 8.140987456649496634e-01 -1.451768892039299486e+00 -1.004505919778313716e+00 4.480682418376653042e-01 1.205171282132529775e+00 4.698547433860350009e-01 -9.583767257073260160e-01 1.116141685607392880e-01 4.096127628961696715e-02 2.802806067657874767e-01 1.056317252305435384e+00 2.950351405867697174e-01 2.410820789492589683e-02 1.369874621597177766e+00 1.627678128448388495e-01 1.105009322219443035e+00 1.701000854462881295e-01 1.028613613452564746e+00 8.547520037703834062e-01 -9.455412634445603537e-01 -2.030153508378844118e-01 -3.241672844741326776e-01 8.468000952558442096e-01 5.814992509665852793e-01 -4.983816495392015544e-01 -5.766840885681021600e-01 2.651242094874778132e+00 1.649059424105044636e-01 -2.051784715283435201e+00 -7.245991514430790703e-01 1.174210055305034306e+00 3.270402353840349829e-01 -8.392168829651104334e-01 -9.965684094426678907e-01 1.041661963074682395e+00 -3.857066437264257408e-02 -1.349113990294960486e+00 1.095917386468954063e-01 -6.035953133611625665e-01 -1.666446767780814797e+00 1.649535078229200424e+00 3.284841670387702028e-01 1.705327507220339545e+00 4.649840451546774500e-01 3.822845051358762514e-01 1.139030162061780427e+00 1.364783322696346834e+00 5.650760710559964428e-01 -1.185207178655521165e+00 -6.569971304353270369e-01 -1.414209699733916414e+00 1.071329410684474182e+00 1.195305958487196882e-02 -1.218318362124202414e+00 7.033268705694725176e-01 -6.907166369622531610e-01 1.599293147201456544e-01 4.818021465434846884e-01 -1.354575528081620961e+00 -3.842668258370885576e-02 -9.581370988728862836e-02 -9.017651431812890861e-01 -4.070164627092899834e-01 1.159604645479733076e+00 -4.895164851062830391e-01 4.203286075375612385e-01 6.204437537697808924e-01 -4.382805655142214124e-02 -9.073130700413098992e-01 1.748130721966958623e+00 -6.030702940522293387e-01 7.798783882008041290e-01 -1.437930185240070546e+00 -2.509042080579119705e-01 1.115018113433035252e+00 6.311338873774342551e-01 -1.647132125016031789e+00 5.042586776310710173e-01 1.997356513742442941e+00 1.496186759704675184e+00 5.074319334150350080e-01 -7.875150794417133948e-01 -1.338196571149061764e+00 -1.419351906481548797e-02 1.264206386698725870e+00 -1.125811605396316306e+00 1.417225603991402849e+00 6.411205671020114849e-01 5.834646023855305508e-01 -1.435571455004931662e+00 -5.815784409504989177e-02 3.148485774060728604e-01 -1.465220390670431833e-02 -9.432596663106356250e-01 5.731297952641386528e-01 2.384852645417045169e-01 2.421999946961942651e+00 -2.605206488966596901e+00 1.016792708581107041e+00 3.968847727544294601e-01 -2.100383711255310981e+00 1.580581685288170890e+00 2.747758744424468325e-01 8.573981833627151161e-01 1.425392456747992975e+00 7.338643795609635090e-01 -2.345982704611690173e-01 -1.143877720362773909e+00 4.809382558098823091e-01 1.817307286680835618e-02 -5.125869956795366944e-01 -2.365447499813503995e+00 1.021375443234597169e+00 6.729698530348234842e-01