5.223910000000000053e+00 1.332240999999999964e+01 6.916339999999999932e+00 8.767720000000000624e+00 1.274770999999999965e+01 1.338521000000000072e+01 9.557309999999999306e+00 9.481609999999999872e+00 1.221901000000000082e+01 6.962659999999999627e+00 2.221680000000000099e+00 1.221221000000000068e+01 1.025101000000000084e+01 1.181240999999999985e+01 8.644529999999999603e+00 1.550189999999999957e+00 5.305699999999999861e+00 2.569129999999999914e+00 5.875960000000000072e+00 1.096401000000000003e+01 1.017140999999999984e+01 7.790790000000000326e+00 8.125629999999999242e+00 1.170781000000000027e+01 4.856040000000000134e+00 5.960679999999999978e+00 3.653119999999999923e+00 1.217581000000000024e+01 4.553819999999999979e+00 5.763160000000000061e+00 6.557820000000000427e+00 9.150909999999999656e+00 1.879979999999999984e+00 9.195809999999999818e+00 2.481139999999999901e+00 7.337399999999999478e-01 1.304490999999999978e+01 6.158220000000000027e+00 4.527059999999999640e+00 8.053580000000000183e+00 5.382900000000000462e-01 5.481679999999999886e+00 4.273299999999999876e+00 2.925640000000000018e+00 5.724540000000000184e+00 1.116760999999999981e+01 1.239640999999999948e+01 1.332911000000000001e+01 6.462439999999999962e+00 1.276280999999999999e+01 2.425799999999999901e-01 4.119700000000000029e-01 7.496100000000000207e+00 2.955039999999999889e+00 4.701290000000000191e+00 1.133671000000000006e+01 1.346640999999999977e+01 1.274070999999999998e+01 3.895430000000000170e+00 8.001849999999999241e+00 1.139831000000000039e+01 1.160791000000000039e+01 3.166609999999999925e+00 9.125410000000000466e+00 1.122241000000000000e+01 2.704759999999999831e+00 5.752599999999999936e-01 1.131020999999999965e+01 1.242000999999999955e+01 6.810030000000000250e+00 2.810979999999999812e+00 1.461829999999999963e+00 5.389910000000000423e+00 5.469479999999999897e+00 1.238260999999999967e+01 7.354119999999999990e+00 4.424369999999999692e+00 8.921499999999999986e+00 1.372480999999999973e+01 1.155361000000000082e+01 3.347519999999999829e+00 1.029200999999999944e+01 1.807420000000000027e+00 8.880679999999999907e+00 2.760500000000000176e-01 1.270429999999999948e+00 1.096480999999999995e+01 7.603410000000000224e+00 9.566010000000000346e+00 1.354151000000000060e+01 1.023291000000000039e+01 1.010709999999999997e+00 3.210980000000000167e+00 1.272751000000000055e+01 2.289470000000000116e+00 6.178989999999999760e+00 5.409080000000000332e+00 1.315840999999999994e+01 1.024581000000000053e+01 9.279809999999999448e+00 6.081360000000000099e+00 1.199699999999999989e+00 1.095950999999999986e+01 1.062430999999999948e+01 1.052701000000000064e+01 4.247500000000000164e-01 1.151571000000000033e+01 7.032079999999999664e+00 1.074790999999999919e+01 9.807209999999999539e+00 1.791239999999999943e+00 8.735910000000000508e+00 1.226830999999999960e+01 6.841479999999999784e+00 5.062479999999999869e+00 1.305780999999999992e+01 2.157389999999999919e+00 4.465620000000000367e+00 8.972709999999999297e+00 1.062601000000000084e+01 5.657180000000000319e+00 1.308801000000000059e+01 4.482820000000000249e+00 8.090120000000000644e+00 8.072710000000000719e+00 9.216710000000000846e+00 8.120589999999999975e+00 1.253599999999999992e-01 1.143561000000000050e+01 5.255999999999999561e-01 1.211101000000000028e+01 9.300100000000000033e-01 5.028179999999999872e+00 3.878530000000000033e+00 8.465709999999999624e+00 2.964350000000000041e+00 1.140521000000000029e+01 7.145010000000000083e+00 3.588950000000000085e+00 1.343110000000000026e+00 7.347159999999999691e+00 1.285590999999999973e+01 1.347771000000000008e+01 4.110599999999999810e-01 1.198790999999999940e+01 8.191050000000000608e+00 3.080100000000000060e-01 9.799609999999999488e+00 4.126079999999999970e+00 8.901490000000000791e+00 1.202341000000000015e+01 1.250711000000000084e+01 7.053580000000000183e+00 4.659040000000000070e+00 6.904099999999999682e+00 7.943529999999999980e+00 3.968249999999999833e+00 2.281610000000000138e+00 9.863110000000000710e+00 2.664759999999999796e+00 1.198509999999999964e+00 5.175419999999999909e+00 1.320060000000000011e+00 6.369360000000000355e+00 9.732110000000000483e+00 1.310501000000000005e+01 3.703939999999999788e+00 8.636700000000000488e-01 3.606879999999999864e+00 5.128219999999999779e+00 5.295480000000000409e+00 7.757179999999999964e+00 1.215430000000000010e+00 3.130749999999999922e+00 3.768060000000000187e+00 9.066810000000000258e+00 1.362761000000000067e+01 3.177919999999999856e+00 9.311109999999999332e+00 4.464159999999999684e+00 1.245960999999999963e+01 3.265829999999999789e+00 1.227031000000000027e+01 1.381050000000000111e+00 3.215969999999999995e+00 1.726420000000000066e+00 1.253750999999999927e+01 1.203200999999999965e+01 1.142920999999999943e+01 7.295370000000000132e+00 6.951389999999999958e+00 1.481899999999999995e+00 1.026540999999999926e+01 7.530619999999999870e+00 8.098599999999999355e+00 1.318241000000000085e+01 6.043989999999999974e+00 6.588800000000000212e-01 8.843590000000000728e+00 4.432769999999999655e+00 4.688349999999999795e+00 1.006870999999999938e+01 5.355550000000000033e+00 1.289870999999999945e+01 2.895049999999999901e+00 5.477289999999999992e+00 8.115709999999999980e+00 2.492999999999999883e+00 1.151200000000000001e+00 1.398849999999999927e+00 1.585830000000000073e+00 9.100310000000000343e+00 1.240601000000000020e+01 1.042460999999999949e+01 5.732569999999999943e+00 1.063451000000000057e+01 5.636200000000000099e-01 9.047610000000000596e+00 7.696860000000000035e+00 3.666840000000000099e+00 6.601650000000000240e+00 1.361791000000000018e+01 1.106260999999999939e+01 1.042189999999999950e+00 8.849200000000000399e-01 4.591540000000000177e+00 1.595409999999999995e+00 1.207010999999999967e+01 7.389210000000000278e+00 4.497589999999999755e+00 1.137740999999999936e+01 2.444529999999999870e+00 8.499679999999999680e+00 9.212310000000000443e+00 1.172691000000000017e+01 1.419950000000000045e+00 1.072891000000000084e+01 2.622549999999999937e+00 1.349100999999999928e+01 3.333880000000000177e+00 1.987300000000000066e+00 8.282399999999999762e-01 9.271309999999999718e+00 1.247381000000000029e+01 7.974050000000000082e+00 7.275050000000000239e+00 8.340130000000000265e+00 1.567139999999999977e+00 7.422209999999999752e+00 6.657180000000000319e+00 1.092090999999999923e+01 3.538289999999999935e+00 1.167220999999999975e+01 6.941010000000000346e+00 1.216710999999999920e+01 7.220209999999999795e+00 6.049349999999999561e+00 4.216009999999999813e+00 4.623540000000000205e+00 1.013471000000000011e+01 6.018279999999999852e+00 1.356831000000000031e+01 4.744570000000000398e+00 1.051481000000000066e+01 1.212560000000000082e+00 6.811890000000000001e+00 1.318271000000000015e+01 5.838140000000000107e+00 4.947280000000000122e+00 1.662879999999999914e+00 1.138410999999999973e+01 3.306399999999999895e-01 5.457989999999999675e+00 7.088350000000000151e+00 8.012399999999999523e-01 9.375410000000000466e+00 9.339899999999999869e-01 9.515610000000000568e+00 4.025949999999999918e+00 3.489100000000000090e+00 1.328151000000000082e+01 1.259930999999999912e+01 3.136600000000000055e+00 1.263480999999999987e+01 9.209709999999999397e+00 3.552290000000000170e+00 1.130250999999999983e+01 2.986639999999999961e+00 1.294210000000000083e+00 5.241489999999999760e+00 5.059510000000000396e+00 9.862009999999999721e+00 4.212889999999999802e+00 2.531519999999999992e+00 8.933949999999999392e+00 5.975520000000000387e+00 6.540020000000000167e+00 1.715179999999999927e+00 8.681600000000000428e-01 1.284791000000000061e+01 6.853539999999999743e+00 7.241240000000000343e+00 7.271530000000000271e+00 9.000709999999999766e+00 7.964949999999999974e+00 4.459900000000000198e+00 9.040810000000000457e+00 9.902309999999999945e+00 5.935970000000000191e+00 4.900669999999999860e+00 6.619180000000000064e+00 1.057521000000000022e+01 1.100271000000000043e+01 8.679690000000000794e+00 5.519829999999999792e+00 6.072499999999999787e+00 1.102280999999999977e+01 7.666400000000000325e+00 1.048790999999999940e+01 8.298200000000000021e-01 4.537490000000000023e+00 5.769699999999999829e-01 8.864549999999999486e+00 2.912069999999999936e+00 9.185909999999999798e+00 5.483909999999999840e+00 1.387190200000000040e+01 7.827670000000000350e+00 2.610899999999999999e+00 5.231500000000000039e-01 1.210171000000000063e+01 8.092010000000000147e+00 1.274901000000000018e+01 8.655699999999999505e-01 1.012440999999999924e+01 1.174431000000000047e+01 3.595940000000000136e+00 9.093410000000000437e+00 9.576610000000000511e+00 4.011529999999999596e+00 1.302031000000000027e+01 1.024511000000000038e+01 1.857420000000000071e+00 4.499939999999999607e+00 1.554959999999999898e+00 9.994210000000000704e+00 1.242000999999999955e+01 7.216000000000000192e-02 4.332539999999999836e+00 6.205999999999999711e-02 7.685730000000000395e+00 1.073651000000000089e+01 9.871209999999999596e+00 1.166250999999999927e+01 1.186500999999999983e+01 5.468230000000000146e+00 4.824889999999999901e+00 6.477300000000000280e-01 1.486539999999999973e+00 1.229100999999999999e+01 4.503949999999999676e+00 1.179381000000000057e+01 2.157230000000000203e+00 3.573700000000000210e-01 5.937820000000000320e+00 1.368980999999999959e+01 1.290870999999999924e+01 2.537599999999999856e+00 7.555069999999999730e+00 8.617309999999999803e+00 7.299820000000000420e+00 1.282690000000000108e+00 2.811679999999999957e+00 1.222930999999999990e+01 3.668470000000000120e+00 5.880150000000000432e+00 5.675700000000000189e-01 1.000971000000000011e+01 3.023579999999999934e+00 1.721989999999999910e+00 8.838129999999999598e+00 8.920400000000000551e-01 1.127951000000000015e+01 1.380001000000000033e+01 5.347970000000000113e+00 1.374351000000000056e+01 5.660289999999999822e+00 8.262829999999999231e+00 4.683599999999999985e-01 1.007930999999999955e+01 1.333080999999999960e+01 1.241201000000000043e+01 6.843519999999999825e+00 7.764829999999999899e+00 3.155159999999999965e+00 1.160750999999999955e+01 1.141020999999999930e+01 6.703020000000000422e+00 1.081930999999999976e+01 3.409969999999999946e+00 1.151951000000000036e+01 8.476290000000000546e+00 6.247969999999999580e+00 7.832180000000000142e+00 1.660660000000000025e+00 7.509000000000000397e-02 2.862330000000000041e+00 1.416719999999999979e+00 5.857700000000000129e-01 1.176711000000000062e+01 2.204909999999999926e+00 3.342369999999999841e+00 1.000031000000000070e+01 3.265750000000000153e+00 7.398179999999999978e+00 5.055349999999999788e+00 1.012180999999999997e+01 7.322090000000000209e+00 8.874900000000000011e-01 1.227370999999999945e+01 2.883970000000000145e+00 8.078000000000000111e-03 1.982790000000000052e+00 1.403929999999999900e+00 6.643220000000000347e+00 2.349439999999999973e+00 1.164761000000000024e+01 1.037360999999999933e+01 2.694290000000000074e+00 8.422890000000000654e+00 1.104660999999999937e+01 6.304299999999999571e+00 6.008729999999999905e+00 6.586380000000000123e+00 4.075829999999999842e+00 3.515709999999999891e+00 2.222989999999999799e+00 4.787119999999999820e+00 1.690520000000000023e+00 5.418859999999999566e+00 8.770789999999999864e+00 5.216829999999999856e+00 1.374480999999999931e+01 3.325680000000000192e+00 2.436030000000000140e+00 1.088060000000000027e+00 6.581540000000000390e+00 1.227660999999999980e+01 1.225801000000000052e+01 3.117900000000000116e-01 9.183609999999999829e+00 8.182679999999999509e+00 1.188870999999999967e+01 3.938999999999999724e-01 5.884830000000000005e+00 1.072461000000000020e+01 7.043000000000000149e+00 8.632379999999999498e+00 1.272521000000000058e+01 5.657020000000000159e+00 2.449120000000000186e+00 1.245991000000000071e+01 9.358909999999999840e+00 4.845110000000000028e+00 5.955129999999999590e+00 5.815540000000000376e+00 1.008561000000000085e+01 6.680069999999999730e+00 3.865450000000000053e+00 1.119951000000000008e+01 6.188270000000000159e+00 9.392010000000000858e+00 7.919480000000000075e+00 9.132310000000000372e+00 3.860720000000000152e+00 7.820549999999999891e+00 2.508799999999999919e-01 7.517430000000000057e+00 4.696519999999999584e+00 4.432710000000000150e+00 7.781789999999999985e+00 1.284700999999999915e+01 4.626100000000000212e-01 1.386551000000000045e+01 1.024840999999999980e+01 7.473519999999999719e+00 6.117810000000000414e+00 1.239071000000000033e+01 7.463519999999999932e+00 9.843809999999999505e+00 6.845979999999999954e+00 7.017009999999999970e+00 7.218679999999999986e+00 1.457670000000000021e+00 8.205049999999999955e+00 5.085119999999999862e+00 1.014490999999999943e+01 1.095691000000000059e+01 1.151900999999999975e+01 1.206160999999999994e+01 8.235649999999999693e+00 1.135130999999999979e+01 5.902800000000000047e+00 1.312021000000000015e+01 1.885539999999999994e+00 8.954309999999999548e+00 4.935419999999999696e+00 1.040170000000000039e+00 1.592659999999999965e+00 9.873110000000000497e+00 4.560450000000000337e+00 2.385520000000000085e+00 6.899099999999999788e+00 2.022170000000000023e+00 4.735099999999999865e-01 4.217019999999999769e+00 9.654410000000000380e+00 5.162700000000000067e+00 1.163480999999999987e+01 1.289841000000000015e+01 7.280400000000000205e-01 1.070381000000000071e+01 3.774859999999999882e+00 4.360339999999999883e+00 8.156719999999999970e+00 3.583009999999999806e+00 1.208791000000000082e+01 1.320161000000000051e+01 1.142581000000000024e+01 1.265651000000000082e+01 1.197511000000000081e+01 4.552719999999999878e+00 1.007630999999999943e+01 1.746399999999999897e-01 1.340981000000000023e+01 3.884630000000000027e+00 1.149540999999999968e+01 1.984620000000000051e+00 1.338241000000000014e+01 9.137710000000000221e+00 1.285781000000000063e+01 4.891759999999999664e+00 1.399000000000000021e+00 8.682890000000000441e+00 1.290480999999999945e+01 1.201240999999999914e+01 9.992110000000000269e+00 1.513220000000000010e+00 1.636799999999999922e-01 1.041901000000000010e+01 8.118399999999999395e+00 4.396819999999999951e+00 2.365650000000000031e+00 4.937759999999999927e+00 5.902999999999999581e+00 1.121471000000000018e+01 1.013300000000000090e+00 2.226059999999999928e+00 4.808279999999999887e+00 5.432990000000000208e+00 2.427230000000000221e+00 1.265570999999999913e+01 3.341689999999999827e+00 5.258510000000000240e+00 1.250910999999999973e+01 1.004860000000000086e+00 5.832320000000000171e+00 7.327440000000000175e+00 8.048450000000000770e+00 1.042201000000000022e+01 6.860680000000000334e+00 2.170370000000000132e+00 2.684099999999999930e+00 8.365330000000000155e+00 8.937889999999999446e+00 5.156780000000000364e+00 3.193699999999999872e-01 1.345701000000000036e+01 6.783799999999999830e-01 8.458740000000000592e+00 1.335731000000000002e+01 6.119410000000000238e+00 6.323850000000000193e+00 1.221270999999999951e+01 1.061241000000000057e+01 7.026220000000000354e+00 5.630480000000000373e+00 1.590510000000000090e+00 8.670579999999999288e+00 1.021851000000000020e+01 1.306431000000000076e+01 9.458310000000000883e+00 1.004931000000000019e+01 2.078679999999999861e+00 5.643749999999999822e+00 1.354120999999999952e+01 1.020149999999999890e+00 5.060660000000000380e+00 3.014639999999999986e+00 9.548709999999999809e+00 9.671709999999999141e+00 1.390200000000000102e+00 7.768379999999999619e+00 2.918600000000000083e-01 6.047390000000000043e+00 5.417460000000000164e+00 9.915509999999999380e+00 3.376700000000000035e+00 1.480189999999999895e+00 9.179809999999999803e+00 1.239311000000000007e+01 8.080690000000000595e+00 1.149630999999999936e+01 2.463779999999999859e+00 1.157930999999999955e+01 1.114790999999999954e+01 9.118209999999999482e+00 6.755700000000000038e-01 1.228580999999999968e+01 1.109060999999999986e+01 1.052561000000000035e+01 1.040381000000000000e+01 9.758609999999999118e+00 6.180740000000000123e+00 8.053209999999999980e+00 1.748269999999999991e+00 6.089470000000000383e+00 2.767700000000000160e-01 1.071681000000000061e+01 4.344599999999999795e+00 1.378461000000000070e+01 7.838849999999999874e+00 7.738990000000000258e+00 8.296720000000000539e+00 6.910510000000000375e+00 4.040589999999999904e+00 4.187299999999999578e+00 9.043609999999999260e+00 5.283019999999999605e+00 1.063911000000000051e+01 3.097329999999999917e+00 8.947100000000000719e+00 2.231520000000000170e+00 1.365250999999999948e+01 1.222611000000000026e+01 9.994410000000000238e+00 5.555089999999999861e+00 2.266259999999999941e+00 6.705239999999999867e+00 5.172950000000000159e+00 1.239681000000000033e+01 2.900959999999999983e+00 9.437810000000000699e+00 1.262790999999999997e+01 5.803910000000000124e+00 3.649610000000000021e+00 1.209480000000000111e+00 7.868710000000000093e+00 1.149410999999999916e+01 3.005250000000000199e+00 1.378509999999999902e+00 4.632259999999999600e+00 3.802410000000000068e+00 1.217140999999999984e+01 7.067799999999999638e-01 1.469799999999999995e-01 8.522930000000000561e+00 3.982359999999999900e+00 8.341549999999999798e+00 4.733839999999999826e+00 7.791859999999999786e+00 1.130890999999999913e+01 9.636409999999999698e+00 3.750039999999999818e+00 3.837320000000000064e+00 1.257891000000000048e+01 7.258070000000000022e+00 1.079059999999999908e+00 6.177120000000000388e+00 9.724709999999999965e+00 3.149500000000000188e+00 1.151590999999999987e+01 7.904160000000000075e+00 8.235450000000000159e+00 9.969310000000000116e+00 1.096151000000000053e+01 9.655409999999999826e+00 7.397199999999999775e+00 8.208059999999999690e+00 8.054050000000000153e+00 1.316680999999999990e+01 6.900210000000000399e+00 3.474299999999999944e+00 1.706280000000000019e+00 1.180170999999999992e+01 6.733830000000000204e+00 7.570030000000000037e+00 6.217979999999999841e+00 6.665250000000000341e+00 1.380350999999999928e+01 1.228720999999999997e+01 1.182460999999999984e+01 8.963810000000000500e+00 1.064889999999999892e+00 2.584630000000000205e+00 4.648179999999999978e+00 4.272610000000000241e+00 5.401620000000000310e+00 6.251120000000000232e+00 1.048920999999999992e+01 8.904070000000000817e+00 7.064460000000000406e+00 9.903810000000000002e+00 8.447200000000000264e-01 7.455549999999999677e+00 5.601099999999999968e-01 4.264940000000000175e+00 1.251830999999999960e+01 1.232480999999999938e+01 3.587219999999999853e+00 4.535230000000000317e+00 2.943299999999999805e-01 1.244960999999999984e+01 6.001459999999999795e+00 1.181400999999999968e+01 1.323991000000000007e+01 6.253309999999999924e+00 4.345449999999999591e+00 8.125260000000000815e+00 2.259710000000000107e+00 2.247660000000000213e+00 2.181700000000000195e+00 1.891950000000000021e+00 9.045410000000000394e+00 8.094049999999999301e+00 1.217820999999999998e+01 4.795620000000000438e+00 7.100150000000000183e+00 1.231741000000000064e+01 3.413380000000000081e+00 1.361270999999999987e+01 1.306751000000000040e+01 4.370090000000000252e+00 9.252610000000000667e+00 1.812869999999999981e+00 7.578090000000000437e+00 1.000370999999999988e+01 3.652649999999999952e+00 1.977789999999999937e+00 1.119140999999999941e+01 5.491419999999999746e+00 7.252189999999999692e+00 6.988500000000000156e+00 5.129150000000000098e+00 6.643819999999999837e+00 9.182010000000000005e+00 2.453590000000000160e+00 6.188419999999999810e+00 1.300481000000000087e+01 3.333099999999999952e+00 6.691959999999999908e+00 7.668230000000000324e+00 6.015550000000000175e+00 1.179560999999999993e+01 4.411170000000000258e+00 1.067090999999999923e+01 9.461199999999999610e-01 9.945410000000000750e+00 8.654500000000000526e-01 8.152979999999999450e+00 1.304301000000000066e+01 1.224630999999999936e+01 8.319000000000000838e+00 5.934260000000000090e+00 1.012120999999999960e+01 1.211241000000000057e+01 3.113189999999999902e+00 4.775089999999999613e+00 5.719739999999999824e+00 1.354761000000000060e+01 1.113190999999999953e+01 1.300980999999999987e+01 6.090849999999999653e+00 1.021800999999999959e+01 5.352260000000000240e+00 9.342909999999999826e+00 2.372219999999999995e+00 1.408770000000000078e+00 2.913999999999999924e-02 4.802039999999999864e+00 5.379730000000000345e+00 1.112611000000000061e+01 3.693630000000000191e+00 6.139529999999999710e+00 4.338129999999999598e+00