-7.790802409151842585e+04
-7.790005552919651382e+04
-7.791292848933849018e+04
-7.789948465164644585e+04
-7.791004771253438958e+04
-7.789617128668616351e+04
-7.791570900888035248e+04
-7.791433098824339686e+04
-7.790440590917601367e+04
-7.789500703857370536e+04
-7.790590893309866078e+04
-7.791492918357966118e+04
-7.791200952123566822e+04
-7.790521278352043009e+04
-7.791468106283496309e+04
-7.790400762696632592e+04
-7.790293686967917893e+04
-7.790978338165038440e+04
-7.790334191170954728e+04
-7.791224942657542124e+04
-7.789723890953489172e+04
-7.790798261708504288e+04
-7.790481386816436134e+04
-7.790606972438568482e+04
-7.789815840953201405e+04
-7.791344979505379160e+04
-7.791503194352197170e+04
-7.789738246693610563e+04
-7.790086346094947658e+04
-7.790721827294652758e+04
-7.790448479209633661e+04
-7.789536278538320039e+04
-7.790815597550854727e+04
-7.790438169008750992e+04
-7.791221683468901028e+04
-7.791047956329320732e+04
-7.789548936423780106e+04
-7.789949140891717980e+04
-7.791039116321258189e+04
-7.791383642497060646e+04
-7.790325243987898284e+04
-7.791249288067352609e+04
-7.790909983248404751e+04
-7.790123371681246499e+04
-7.790357189068265143e+04
-7.791627739573437429e+04
-7.791096302555712464e+04
-7.789767817608387850e+04
-7.790412888182465394e+04
-7.790344864929138566e+04
-7.791611387813027250e+04
-7.790948782712276443e+04
-7.791202684505390062e+04
-7.791342163222760428e+04
-7.791178527605893032e+04
-7.791025846508948598e+04
-7.791550360619087587e+04
-7.790798090475432400e+04
-7.791236984025014681e+04
-7.790827872842998477e+04
-7.791158227749529760e+04
-7.789907417609862750e+04
-7.791009850849266513e+04
-7.790120398786252190e+04
-7.791344039508946298e+04
-7.789539717009229935e+04
-7.790774724452906230e+04
-7.791089093194087036e+04
-7.791419858316717728e+04
-7.789705082602257608e+04
-7.790479179883179313e+04
-7.790592740630223125e+04
