1.016045545940675865e+00 -5.626252953200746587e-01 5.503817010539614474e-01 -8.053261409534884230e-02 -4.897525123959994287e-01 1.661328729404896176e-01 -6.352229701831517694e-01 -4.182886941207753506e-01 1.908509465556847418e-01 2.102612343659734928e-01 -1.167084499414839716e+00 -4.622427347375144824e-01 9.335367817922118894e-02 5.836517787111443756e-01 -4.291685751574163543e-01 -2.624433199995995780e-01 -4.488256888915915233e-01 1.689028254492368708e+00 2.134910544241615249e-01 -1.142982976388685845e+00 -7.028841265685014106e-01 1.207691477659544654e+00 1.340322873639207879e+00 -5.410902476816641382e-01 7.875330771653300532e-01 1.528506043334221021e+00 -3.822824482531771428e-01 4.625512671423724353e-01 -1.633767529678934904e+00 1.409895388272652539e-01 -9.867550220854860443e-01 9.142190537033805242e-01 6.027540483372498953e-02 -1.988331940900348038e-01 -6.181919814349925435e-01 6.883882457469250316e-01 -6.492406257771980993e-01 -1.365407586595509093e+00 2.222952837071206389e+00 -5.990053796182258639e-01 1.561262928757989998e+00 -9.525557476690058589e-01 -5.338453925949245837e-01 8.309369016600725022e-01 -2.080238087880110776e+00 1.197522763816101232e+00 5.455120312639533120e-01 -1.281167441435117516e+00 -7.433615212031660091e-01 -2.438496146208348203e-01 -5.420924637767776666e-01 1.296635713552670932e+00 -1.234915862843536161e+00 -1.114559428591146428e+00 9.335727772394453172e-02 -2.677768168382440583e-01 1.967053489378644549e-01 4.550359319807074643e-01 -4.115194931581917515e-01 7.864377871280843202e-01 7.762037672589459092e-01 1.762750015750478072e+00 4.006144153084874038e-01 4.467394956140769424e-01 2.537745878644405151e-01 3.186872347431806141e-01 1.907793670377576856e+00 -2.977602530526775926e+00 1.486433536166440472e+00 1.610183312651592757e+00 -1.137751809464318864e+00 3.808431445845147922e-01 4.075749063620828783e-01 -1.538830051821442835e+00 -2.600758480129894967e-01 2.858043652540944723e-01 -1.084295999219304224e-01 -1.117870495515947082e+00 -9.148289194236496336e-01 1.232359671869287743e+00 -2.286893606874644200e-02 5.125761970453666105e-01 -2.967560314969324153e+00 2.021055401980257571e+00 -1.016347393476761951e+00 -6.170771510121058068e-01 5.002148462447325583e-01 -1.079405760602305753e+00 -4.388122696919265486e-01 2.045251027389893284e-01 -1.175184503483710508e-01 -1.000557733437481334e+00 -1.249672453547217010e+00 -1.907820409852664378e-01 9.201881272960324987e-01 7.024321265953844540e-01 -4.384631138537622985e-01 1.206855869063054199e+00 3.611742037748201239e-01 1.148497478904846769e+00 -5.229984216814683590e-02 7.475755596328510499e-01 9.979007552109794288e-01 -1.066812496277353556e-01 1.556948103076051471e+00 -2.139718507550651683e-01 -1.703064422030706515e+00 6.388106878309749437e-01 1.157408923198494088e+00 -9.424225150521210737e-02 7.946720027930683772e-01 -3.165053964201600678e-01 -1.252487297520871179e-02 -9.507564895280090633e-01 -3.946900789145398741e-02 2.907902489165989923e-01 -2.206335795966231916e-01 -1.996045251021797140e-01 1.815060142332119986e-01 -4.155252722145976185e-01 -8.378639683698084761e-01 1.528335836290874106e+00 -4.749043904122102755e-01 -1.739902676950071614e+00 -3.708035001304368916e-01 5.917029318159127138e-01 -4.704476398240370894e-01 7.298945959517911808e-01 -6.145194173758333767e-02 1.155311417066134938e+00 2.678637201322791039e-01 -1.586936424386895084e+00 -7.689152034148514225e-01 2.930497345615087346e-01 2.864939351789518862e-01 -2.121323291352345652e+00 1.270216597945359016e+00 1.260769849929282982e+00 1.394786556406758748e+00 -9.773046745246866118e-01 3.827231353714493078e-01 1.847018443047981906e+00 7.635775928108088362e-01 1.110696088661650011e-01 1.560837154039286245e+00 -2.021035861594616456e+00 -2.901693274518223564e+00 -1.455140122783047385e+00 7.668598633778227480e-01 -3.638414664148171274e-01 -1.366755358984063973e+00 1.330648840084886798e-02 -6.343580510082000301e-02 -5.400664343182104421e-01 -4.321407706575480095e-02 6.128060340875221002e-01 -6.037125556750085886e-01 -4.045569452218972795e-01 9.556138180218229916e-01 8.075321476482228561e-03 9.911156134074784463e-01 1.166954401584124446e+00 -1.709936467128242654e+00 -2.469277395799676977e+00 6.526226551551160826e-01 -1.658693862667409036e+00 -7.292163388817783642e-02 -2.316421186460900117e+00 -8.259083376815625765e-01 4.904904190642846995e-01 -1.129580328721655924e+00 -1.192469517245202670e+00 1.282996010154575650e+00 5.719877111454892971e-01 -4.770250364749339944e-01 6.048566966763569974e-01 -3.701766651279005393e-01 -2.326301422505801408e+00 -3.493460998139155671e-02 -1.379633501562834708e-01 -9.060300894577755226e-01 -1.196143623966386293e+00 -4.070195480333385629e-01 8.311338481785068844e-01 -9.731631412101433565e-01 1.683481356073697199e-01 -5.383972740079289165e-01 3.781378296145853080e-01 -4.849085536397294560e-01 -1.035095365057955741e+00 1.256567124354442955e+00 1.510106713370516496e-01 -2.634055297262165585e+00 4.762866155859739326e-02 1.265438459435458629e+00 -1.137412423818975338e+00 -1.162447257369824544e-02 1.051630645075643189e+00 -2.850484608621924321e-01 2.727765844589672417e-01 2.135299809292411144e+00 1.636928958387379396e+00 1.941233440857431880e+00 1.029353577003549125e+00 9.302308570741588678e-01 -1.340204602884012219e+00 2.260714632322446405e-01 -5.723080706258668604e-01 1.943593713754594887e+00 -4.930388967284114465e-01 -4.085498687614340652e-01 2.668911231480318058e+00 3.093695561164702679e-01 7.795035213289016607e-01 4.815023558900976552e-01 -1.045583924161102019e+00 1.412138933076644731e+00 -3.452621592149458518e-01 8.687943419568185943e-01 -1.472237960218925945e+00 -1.355273839757949794e+00 -1.820943855292761482e+00 2.712534628203184250e-01 9.196291694225648961e-01 -1.119427555719130218e+00 2.147742921180332054e+00 1.232484113272580561e-01 1.044940119876298423e+00 -9.688657990311468904e-01 -9.677093167336044965e-01 6.078396908106585839e-01 -4.313391006255921645e-01 4.301373669086704377e-01 -9.659887343558464234e-01 -7.917311747540972666e-01 -2.273225621339436675e-01 5.211194593358834393e-01 -7.543391041680121978e-01 2.317159093129185443e+00 -1.211996018927988139e+00 -9.174509306442676371e-01 1.591281589088644699e+00 9.230955309911439421e-01 9.634531122085889798e-01 3.554082473486996907e-01 -2.976293838909503386e-01 6.894881637702438004e-01 3.026486918973144702e-01 -2.930805878019945299e-01 1.872708393738479637e+00 2.059359185822697835e+00 -5.912308772364800458e-01 -6.091303847043143954e-02 1.589044729153424665e-02 9.896079183890724718e-01 4.852751929808357123e-01 -3.659276596923317082e-01 4.968955517891357476e-01 2.406770273237479607e+00 -2.812558776975434771e+00 6.663734302189604219e-02 -1.698825701008633005e-01 -3.433446303187536186e-01 -3.082496349089034027e+00 1.527938857929956873e+00 7.721511941211366414e-01 5.488791482423032754e-03 -5.776297403889918414e-01 -5.487711619006029329e-01 1.840164395674062092e-01 3.553959060525053726e-01 -3.931098787809923500e-01 -2.788469595245475219e-01 1.765238843816332226e+00 -2.159608563250494662e-01 1.855402296929322237e+00 1.014038028426400007e-01 8.725527808686630582e-01 1.832705624786621357e+00 3.251175642810951172e-01 1.121737434990166982e+00 -5.018546959765527449e-01 1.362837511663042456e+00 2.979564282400997688e-01 7.238293630929585332e-01 1.965917061687417339e-02 5.305374109941725091e-01 4.359264632651551064e-01 1.103955684056853404e+00 -7.301877017364061251e-01 -5.926002468933745382e-01 -2.619846351577107546e-01 8.781654995337040415e-02 2.957915591993464655e-01 -1.492828898698471018e+00 1.829854271145059108e-01 8.345672996239011932e-01 2.084306087638162774e-01 -1.335379670292708709e-01 -2.620725668930952088e-02 -2.951837503617762426e-01 9.662772121543886095e-02 -7.773458513775951539e-01 1.394730506353209165e+00 5.160852389299511733e-01 4.311709504649445801e-01 -5.568958485618624721e-02 1.381294434342320299e-01 -8.443092103072911137e-01 -7.090851136854715575e-01 2.790634464286228522e-01 -2.542019566672362618e+00 -3.734486512814191306e-01 7.222090537467793503e-01 -1.053436073864736811e+00 -1.597339108637356175e-01 1.746272842669038816e-01 -1.490864575720875496e-01 -6.847928147889803530e-01 2.604908240975234435e-01 -5.538352071056714676e-01 -5.250213658159870178e-01 -1.306366311381216061e+00 -9.080586900197166189e-01 -9.005335846652311460e-01 -1.215926207545203530e+00 -2.460659057290644491e-01 4.433296983197217989e-01 6.570763204192407725e-02 -1.715877258583782816e-01 1.440141848362227750e-01 -7.269573674575433575e-01 1.001717301059072418e-01 3.295372909806854045e-01 -1.341241785985009816e-01 3.422909921561637092e-02 8.773448033367818866e-01 -2.730234103828536041e-01 5.045569256224337051e-01 5.298231584769264035e-01 -1.027132143688571642e+00 -7.682420885515863773e-01 1.563148575972346799e-01 -6.217349618841113701e-01 -1.089708171821187621e+00 -7.920901007850820186e-01 8.743294132999701596e-02 2.648030786760880995e-01 -1.118607373742882771e+00 1.185693631413847315e+00 8.408973561302367505e-01 -1.199214035615397522e+00 1.135683099689746456e+00 -9.869951631406003942e-03 9.991199724308431618e-01 1.873252439212379272e+00 -8.591485905396091249e-01 -6.604274965566728772e-01 2.863592093621639689e-01 -1.125244934212727088e+00 6.604022997436094222e-01 -7.793554257745700653e-01 -1.084323767135741523e+00 -2.305299621707120217e+00 -1.027212876334509417e+00 2.233039275606687746e-01 3.412548374965157505e-01 1.332889299564830266e+00 -1.820186922459509846e-02 -3.226837578274406315e-01 2.592119572793872284e-01 3.328720120565251128e-01 -2.258488056800721511e-01 -1.253012316829804407e+00 1.185262200267720889e+00 -6.617624134283582871e-01 -4.470557413290563442e-01 -1.138746312249311110e+00 2.322557895993524912e+00 4.825698780109061170e-01 -2.565632065836816467e-01 3.831303981458617641e-02 -6.833134019076864130e-01 -5.623512157004257883e-01 1.300253255999630486e-01 1.297044518989107775e-01 -2.161086947690439075e+00 -1.457769333093112074e+00 -5.517834666133661914e-01 4.394103083366762141e-01 8.230508133919032243e-01 1.252334059759791840e+00 -8.934141994231338257e-01 3.634820261631576122e-01 1.230449342062542417e+00 -5.844457354329787302e-01 -2.781234510351555667e-01 -4.924115475052001645e-01 1.116431706067959606e+00 -5.558226700136316145e-01 -1.010582465491991072e-01 -6.149117677506776847e-01 1.141850148242182339e+00 -4.412424766008577609e-02 2.861267816171709222e-01 1.717342787506858093e+00 -1.685273415125247087e+00 4.981908736688644979e-01 -2.499256461138375240e-01 -1.750299190552435435e+00 2.595541197163746983e+00 -5.814550279885557366e-02 -9.863657570346900938e-01 -2.482677986584007346e-01 -1.471159639463947566e-01 1.072546056800963710e-01 7.892726857080542002e-01 1.093996772248713167e+00 2.899176164315257764e-02 -9.114612882246252157e-02 3.497060542862499150e-02 -1.604160245888090586e+00 5.498829069994410901e-01 -1.042239432892441808e+00 2.184371888285068675e+00 9.246407641188075788e-01 1.085569209610018238e+00 -2.148561560494555600e+00 -1.326385436470424395e+00 -2.949250973623703809e-01 -1.084201896835822687e+00 -5.440773555813639417e-01 -4.920243393371034335e-01 -3.961895464021495394e-01 6.999710664459674048e-01 4.591836359433478787e-01 3.682575935696840164e-01 -2.653687214183277424e-02 -1.126693493853535011e-01 5.013965253553385182e-01 6.386425376703273038e-01 -1.217335172194054932e-01 -1.093695953153976663e-02 6.226271347548256729e-01 1.938611943857488501e-02 -8.311451610333517315e-02 -1.536082570756182708e+00 -1.256500275666723843e+00 -1.599744118733223974e+00 6.882072400694085046e-02 -3.082871215960936162e-01 -4.403405335373229423e-01 1.992975353593460230e-01 1.127568697441982293e+00 1.125181170849056445e+00 -1.202311186739496662e+00 -1.578976288341559897e+00 -1.545106115156928528e+00 -1.231378538821839286e-01 -2.709923415616736886e+00 1.779851452731079642e-01 -7.990475065146290801e-02 5.055329164631342520e-01 -1.123412765948545555e+00 -2.053471873317333607e+00 4.403271637997792018e-03 -1.722212457296865840e-01 -1.607428118276211237e-01 -1.329459961884834174e+00 1.587057780466139434e+00 -9.727610206424786021e-01 2.412229754141440807e+00 -6.864228943279798711e-02 4.069300736359297010e-01 2.839356873220047484e-01 1.994703135060664767e-01 1.314741937731759958e+00 -3.833921364693163025e-01 9.336452823545869917e-01 -9.613036697880783521e-01 1.662829739554529951e+00 5.361629851760826293e-01 -7.196652040687256946e-01 -5.279560232068609693e-01 4.326981858689913918e-01 -6.543164980577862444e-01 -3.472871602321634943e-01 -2.431286772348167369e-01 5.212130474986903517e-01 8.062928758220433423e-01 2.717388871372949932e-01 -5.703792288748298356e-01 -5.741140136356354118e-01 -1.682010684943874290e-01 9.357736417274320484e-02 1.372260091307404339e+00 1.040257626411904113e+00 4.653002908696568518e-01 3.020439683837928824e-01 -2.979883099219350906e-01 2.400274123453195185e-01 -3.139389210324166068e-01 -2.061510685125907301e-03 -1.300542762239522032e+00 -6.862172060580745692e-02 1.017544499207610809e+00 -1.675392150638996380e+00 6.250712256219755070e-02 -4.443663672000445208e-01 4.939362118058732154e-01 -3.392092676523075223e-01 -1.352523273368640755e+00 1.824550599105550619e+00 2.290184619193129031e-02 -4.482842145210658158e-01 5.697961026296483045e-01 -1.525445916098704668e-01 -6.183884137327521069e-01 -1.277661999095256240e+00 7.969741687539836361e-01 5.418857470655229491e-01 -3.973012915009876966e-01 -1.240434479125095191e+00 1.609886607322254193e+00 5.542784653273174350e-02 6.767555456424305671e-01 -1.259650391520323431e+00 2.049308228513775365e-01 -8.616189066611720238e-01 -2.727483023218552627e-01 1.685503271766866318e+00 7.232992015772775618e-01 3.910170006347059024e-01 -1.049976911385604311e-01 -3.337857821955793614e-01 -9.081327377968826386e-01 2.730530294937199454e+00 -5.706656497906730241e-01 -5.136272641045827037e-01 -3.268504879550473419e-01 -1.794768994505962223e-01 3.248884275484206441e+00 6.774893385453177874e-01 3.696634728944868109e-01 -1.681193074071000645e-02 2.142382170645925343e-01 -8.129695170631694445e-01 -1.717713026392687636e-01 -5.360030625462312015e-01 -5.986150861260804978e-01 -9.481149379217503892e-01 -9.277055193403965783e-02 -2.906750634854519677e-01 9.577257223330755409e-02 2.621615270698292588e-01 4.168185372116272047e-01 -2.000518970892237458e-01 1.873504921563687864e+00 -7.918242486962294713e-01 -1.103877008293614459e+00 -1.158090779813230053e+00 -2.227573109833954623e-01 -8.589876394684085037e-01 5.653840892401795770e-01 2.460977874108998265e-01 -1.802775410412025825e-01 -1.992301724509520366e-01 3.640749226011596451e-01 -3.340778595388449457e-01 -7.239507191722025503e-01 -2.053967067827130455e-01 -3.030842368088390026e-01 -3.913692417969187320e-01 -9.310428115196101029e-01 1.812177421229397289e+00 1.384300568406986232e+00 -4.977969806319957335e-01 1.098750742386899404e+00 -2.645871059926875601e-02 -1.269508001855535195e-01 -1.357280328830875904e+00 8.885733259909124604e-02 -9.963781477930055974e-01 -8.647762216042184091e-01 -7.638043641283793761e-01 6.821594907135176689e-01 -9.694293848906874178e-01 -3.510857083566397696e-01 3.120974967960894020e+00 6.430190698332375332e-01 -1.350191796829264490e+00 -9.374458873617622645e-01 -6.554719519139793338e-01 -7.402283746318335522e-01 -1.204819040970317029e-01 2.850798283233529906e-01 4.294421405563905170e-01 -9.295078628054417313e-01 -9.832007287815222041e-01 2.299476586786100840e-01 -1.335312821604989431e+00 -4.769036803956897552e-01 -5.750457814983064297e-01 -1.107428216273529609e+00 6.023478140041869933e-02 2.059309820637920674e-01 -2.707577540898467236e-02 -1.955581226124675914e-02 1.334582628246825664e-01 -3.948037216836625118e-01 4.778297918309383774e-01 7.543288197545169327e-01 6.647855167752914074e-01 1.086744718072527149e+00 8.650343603829494521e-01 -1.729521589967950801e+00 2.087765250117295412e+00 1.533255385486334443e+00 -5.619532088981590290e-01 -1.153472049712506609e+00 -1.635632093845626356e+00 -3.827442184191146013e-01 -4.630135515289846571e-01 1.010294501914123788e-01 3.134334421091243272e-01 1.231945210005428448e+00 3.807197316225716666e-01 6.573668551004818728e-01 -6.353093592565118852e-01 -3.664753047109545747e-01 -7.589166966147546933e-01 6.221468526445966818e-01 -7.970703280201643093e-01 9.468653816820755686e-01 -4.716581152924297915e-01 -4.707829117039827316e-01 1.801658523106439924e+00 4.738137283610374118e-01 9.312875805607974122e-01 9.495249310119511232e-01 1.443666316867054933e+00 6.478347464523953603e-01 -6.540167074043993223e-01 -3.187443132380793354e-01 -3.833119180440532348e-01 -6.656550639363161270e-01 8.511827980668515981e-01 5.040802430569280707e-02 1.995580395531810991e+00 -1.215000610330629616e-01 2.971732701524353315e-01 -5.557794754769515011e-01 -9.137305440623554320e-01 -1.011219070687348065e+00 -1.070443408461856816e+00 9.673627319988138407e-01 -4.407951046138137291e-02 -2.567863269344614174e+00 7.941726945178732844e-02 1.352865744338033416e+00 -4.321885931803010061e-01 9.523495451784256272e-01 -3.299301555762044758e-01 -6.774389449191909884e-01 8.246063309330621260e-01 -3.620488931425924761e-01 8.643807859053254106e-01 -3.715414067987222180e-01 4.334741448672091990e-01 -6.483294267415176670e-02 -4.257253535192015992e-01 -6.593291211953784536e-01 7.101978872256591302e-01 -2.001100040254719659e-01 -1.239006488311277687e+00 7.122516846006636815e-01 -4.551207783920433458e-01 2.744858539818802456e-01 6.804980437133576476e-01 -8.855898176359361385e-01 -1.482352166670844573e+00 1.526299008198136908e+00 5.589979826802946583e-01 1.632496376170920194e-01 2.869222810010297331e-01 -1.080936595551075907e+00 1.037492147623027217e+00 -6.211127548676478316e-01 -9.255663613333814377e-02 -3.194138285566210378e-01 2.283021525193676682e-01 1.953303742756149486e+00 -1.538886616095666904e+00 8.901406706075909447e-01 -1.219793147019423152e-01 3.128189484027822931e-01 3.862671442619176887e-02 4.673988254433657508e-01 1.100072289521041025e-01 -2.745444751388033122e-01 1.975655887046759096e+00 -2.119144538353373852e-01 1.770238611437055187e+00 1.185885435725533982e-01 2.916232864097154098e-01 1.513500569823954256e-01 -1.504599924164476965e+00 6.698912138550159323e-01 -1.811239482718629210e-02 1.580750349669493016e-01 1.712847984588752315e+00 1.084008035641437079e-01 1.572198859848180086e-01 2.051789343269507793e+00 -2.412497148892317755e-01 -1.372867385924299910e+00 -2.888310681457509910e-01 2.305235858343449851e-01 -9.213132421324143895e-01 -4.595250784713906245e-01 8.526730095823155109e-01 -6.747644831897472439e-01 1.536141706133780538e+00 -1.028109162970622048e+00 -3.005732972539699732e-01 4.071594160568741683e-01 6.715722012408170682e-02 2.857755688963076746e-01 -5.033443932713418389e-01 -6.769031269760877878e-01 5.259428492651627707e-01 -1.828363031188245669e-01 -3.053339522609282292e-02 3.316826196357976486e-01 -2.820104451156910663e-01 -2.167738392118501722e-01 5.088645522149254363e-01 7.450697622847296531e-01 6.695199465278367512e-01 -5.777135583589783074e-01 -2.219001051185651163e-01 1.075975908701634898e-01 -1.607140154698343537e-01 -5.447514988859785134e-01 4.741191754418467852e-01 5.221988085322115669e-01 4.552339069404912619e-01 -1.284454339988204019e+00 1.325962747075769110e+00 -2.703887493336365466e+00 1.642012029757414115e+00 2.401791074443746787e-01 -1.446192168821492041e+00 1.793452589578568013e-01 3.394576362382181745e-01 2.552245359010704817e+00 1.780422751900741840e+00 1.149013242241634369e+00 4.058635799564707103e-01 -1.566501294771803499e-01 5.524087589538781984e-01 -2.566948470764210954e-01 5.400278677676032535e-01 -2.147116600398470521e+00 2.367837083289128508e-01 7.113955071771828065e-01 1.209763786978840683e+00 -1.810868729612124639e+00 5.486333507597663806e-01 -1.811187546430478079e+00 -1.290606476141071546e-01 6.516893446304207194e-01 -9.655866137881814470e-01 9.789882330138615085e-01 9.934743436426176667e-04 2.551305877837912184e-01 3.398818682948978043e-01 -1.126629730489864478e+00 9.998887323396142834e-01 8.619253821833309237e-01 3.795041139474313319e-01 9.458163715055585563e-02 -1.125207396103469343e-01 -2.462602811441250063e-03 2.361815559187651140e-02 1.480724144014543830e-01 3.257608543452239491e-01 1.022265559222612225e-01 1.072986229698561056e+00 -6.908086824630356171e-01 9.117677637467840324e-01 3.293069201183914108e-01 -5.223613022654367555e-01 -1.621780017308853961e-01 1.308143458033197870e+00