1.197442700000000038e+01 7.845356999999999914e+00 7.808176999999999701e+00 1.634542700000000082e+01 5.006857000000000113e+00 1.625432699999999997e+01 3.295577000000000201e+00 2.645287000000000166e+00 5.951116999999999990e+00 4.043757000000000268e+00 8.736857000000000539e+00 1.433502700000000019e+01 1.440592700000000015e+01 1.165772699999999951e+01 4.678137000000000434e+00 1.024762699999999960e+01 3.514610000000000234e-01 9.833446999999999605e+00 5.450296999999999947e+00 3.639286999999999939e+00 8.913170000000000259e-01 1.441354000000000024e+00 8.622626999999999597e+00 1.313982700000000037e+01 5.549737000000000364e+00 1.653692699999999860e+01 1.258362699999999990e+01 4.310010000000000230e-01 8.732347000000000747e+00 7.396246999999999794e+00 2.898646999999999974e+00 1.907907000000000020e+00 3.832486999999999977e+00 1.429452700000000043e+01 8.573859999999999815e-01 6.118837000000000081e+00 1.878927000000000014e+00 3.993627000000000038e+00 7.364626999999999590e+00 8.133146999999999238e+00 1.470612999999999948e+00 1.073482699999999923e+01 8.690507000000000204e+00 1.040746700000000047e+01 1.372242699999999971e+01 2.238147000000000109e+00 6.101407000000000025e+00 2.642336999999999936e+00 9.543457000000000079e+00 7.475516999999999967e+00 9.199536999999999409e+00 1.595972700000000088e+01 1.678752700000000075e+01 1.175242700000000085e+01 1.268842700000000079e+01 1.201532699999999920e+01 6.147807000000000244e+00 1.468262700000000009e+01 1.647422699999999907e+01 9.802566999999999808e+00 4.382837000000000316e+00 1.006367700000000021e+01 1.677972700000000117e+01 6.136716999999999977e+00 4.903376999999999875e+00 1.331952700000000078e+01 1.471532700000000027e+01 9.298966999999999317e+00 1.671122700000000094e+01 1.131402699999999939e+01 2.937117000000000200e+00 9.665559999999999707e-01 1.653552699999999831e+01 7.376507000000000147e+00 9.357877000000000223e+00 3.029266999999999932e+00 1.160322700000000040e+01 5.319946999999999981e+00 1.152552700000000030e+01 1.059032700000000027e+01 3.132906999999999886e+00 1.434672699999999956e+01 8.238616999999999635e+00 2.058756999999999948e+00 8.127786999999999651e+00 1.084282699999999977e+01 1.138142700000000040e+01 1.542272700000000007e+01 8.193056999999999590e+00 6.262946999999999598e+00 9.864456999999999809e+00 5.281727000000000061e+00 1.082992699999999964e+01 1.420062700000000078e+01 6.167076999999999920e+00 3.521819999999999951e-01 1.485022000000000064e+00 4.271349999999999869e-01 2.376196999999999893e+00 9.444046999999999414e+00 1.789217000000000057e+00 1.662742700000000085e+01 5.186137000000000441e+00 1.049936699999999945e+01 5.904067000000000398e+00 1.382622699999999938e+01 7.340149999999999730e-01 3.450006999999999824e+00 1.377075999999999967e+00 1.615672700000000006e+01 1.175592699999999979e+01 1.014291700000000063e+01 1.298002699999999976e+01 7.308226999999999585e+00 5.676407000000000203e+00 4.163376999999999661e+00 1.575382699999999936e+01 2.426857000000000042e+00 1.036720700000000051e+01 1.324312699999999943e+01 7.742769999999999930e-01 6.533247000000000249e+00 1.297662700000000058e+01 6.976526999999999923e+00 1.035268699999999953e+01 3.404880000000000129e-01 4.116117000000000026e+00 1.507112700000000061e+01 6.738330000000000153e-01 1.367992699999999928e+01 9.630736999999999881e+00 1.478732699999999944e+01 8.892307000000000627e+00 1.215622699999999945e+01 1.539882700000000071e+01 2.434696999999999889e+00 1.550592699999999979e+01 2.154967000000000077e+00 9.223147000000000872e+00 1.678972699999999918e+01 1.505872699999999931e+01 3.141427000000000191e+00 1.634092700000000065e+01 1.320032699999999970e+01 1.647192700000000087e+01 6.507799999999999696e-02 3.173566999999999805e+00 5.770830000000000126e-01 6.321207000000000242e+00 6.562240000000000295e-01 1.076232700000000087e+01 1.280082699999999996e+01 2.333797000000000121e+00 1.260962699999999970e+01 3.730800000000000227e-01 9.605366999999999322e+00 6.539297000000000359e+00 6.733320000000000416e-01 7.458976999999999968e+00 1.003604699999999994e+01 3.423267000000000060e+00 4.578656999999999755e+00 7.601287000000000127e+00 9.271226999999999663e+00 5.422067000000000192e+00 1.483362699999999990e+01 3.540986999999999885e+00 1.066112700000000046e+01 7.967887000000000164e+00 3.671527000000000207e+00 1.181732700000000058e+01 7.161896999999999736e+00 1.575732700000000008e+01 1.445782699999999998e+01 1.696122700000000094e+01 1.269762700000000066e+01 6.305316999999999616e+00 1.002472000000000030e+00 1.065062700000000007e+01 6.855437000000000225e+00 1.956266999999999978e+00 7.682076999999999600e+00 1.040980700000000070e+01 7.493877000000000344e+00 3.632436999999999916e+00 4.675657000000000174e+00 4.621399999999999952e-01 8.844927000000000206e+00 1.686642700000000161e+01 5.548197000000000045e+00 6.383646999999999849e+00 1.475022700000000064e+01 1.303412699999999980e+01 2.410346999999999795e+00 7.924236999999999753e+00 1.379832700000000045e+01 9.327837000000000600e+00 3.335747000000000018e+00 3.510367000000000015e+00 4.299706999999999724e+00 2.693197000000000063e+00 3.486399999999999916e-02 4.382846999999999937e+00 1.347852699999999970e+01 1.617242699999999900e+01 1.671682699999999855e+01 7.860107000000000177e+00 9.126087000000000060e+00 1.684642699999999849e+01 7.561806999999999945e+00 3.365766999999999953e+00 1.028073700000000024e+01 3.184146999999999839e+00 8.497837000000000529e+00 9.566527000000000669e+00 7.964197000000000415e+00 3.584636999999999851e+00 1.465052700000000030e+01 1.513692700000000002e+01 2.077697000000000127e+00 1.066452699999999965e+01 1.633482700000000065e+01 4.370267000000000124e+00 8.886157000000000750e+00 1.044590700000000005e+01 1.459232699999999916e+01 5.749417000000000222e+00 1.009924700000000009e+01 1.175672699999999971e+01 5.315507000000000204e+00 1.689172699999999949e+01 4.500066999999999595e+00 2.807790000000000008e-01 8.342936999999999159e+00 1.611542700000000039e+01 2.137526999999999955e+00 1.223612699999999975e+01 5.708497000000000376e+00 2.813337000000000199e+00 6.031607000000000163e+00 1.254992700000000028e+01 4.489806999999999881e+00 1.059722700000000017e+01 9.525866999999999862e+00 9.489706999999999226e+00 1.571322699999999983e+01 1.342012700000000081e+01 9.738917000000000712e+00 6.980516999999999861e+00 2.791206999999999994e+00 8.684616999999999365e+00 2.622977000000000114e+00 9.553767000000000564e+00 6.072057000000000038e+00 1.574182700000000068e+01 1.045117000000000074e+00 1.536282699999999934e+01 6.690426999999999680e+00 7.919997000000000398e+00 1.447332699999999939e+01 2.796637000000000040e+00 5.822346999999999717e+00 9.768826999999999927e+00 1.081352700000000056e+01 8.736216999999999899e+00 1.278352699999999942e+01 7.422159999999999869e-01 9.837037000000000475e+00 1.447282700000000055e+01 4.104086999999999819e+00 5.199887000000000370e+00 8.652177000000000007e+00 7.335266999999999982e+00 9.611767000000000394e+00 1.502032699999999998e+01 6.281916999999999973e+00 3.354586999999999986e+00 1.593612700000000082e+01 1.006814699999999974e+01 9.090536999999999423e+00 1.178522700000000079e+01 9.328787000000000162e+00 1.265675000000000106e+00 1.594872699999999988e+01 4.560616999999999699e+00 1.228242700000000021e+01 4.289386999999999617e+00 6.070337000000000316e+00 6.617307000000000272e+00 1.614442700000000031e+01 1.455352999999999897e+00 8.703507000000000104e+00 8.670277000000000456e+00 8.443680000000000074e-01 7.010316999999999688e+00 2.882576999999999945e+00 2.312647000000000119e+00 8.806217000000000183e+00 1.460282699999999956e+01 1.590362700000000018e+01 9.767267000000000365e+00 9.095427000000000817e+00 3.597466999999999970e+00 7.515327000000000091e+00 1.206237999999999921e+00 6.894780000000000353e-01 1.343332700000000024e+01 6.345917000000000030e+00 6.381236999999999604e+00 5.911857000000000362e+00 1.082848999999999950e+00 1.051178699999999999e+01 3.388777000000000150e+00 1.201702700000000057e+01 1.462662699999999916e+01 1.149992699999999957e+01 2.406086999999999865e+00 3.007207000000000185e+00 1.087037000000000031e+00 5.797657000000000060e+00 1.840816999999999926e+00 9.673356999999999317e+00 1.551372699999999938e+01 1.569392700000000040e+01 9.866296999999999429e+00 7.078130000000000255e-01 1.603612700000000046e+01 1.341747999999999941e+00 7.818507000000000318e+00 1.186332699999999996e+01 2.057326999999999906e+00 1.573662700000000036e+01 5.954126999999999725e+00 4.145557000000000158e+00 8.935997000000000412e+00 2.890836999999999879e+00 1.072182699999999933e+01 1.404622700000000002e+01 3.219056999999999835e+00 8.220176999999999623e+00 1.146272699999999922e+01 1.436292700000000089e+01 1.712410000000000043e-01 1.619852699999999857e+01 7.046206999999999887e+00 1.449432700000000018e+01 6.968257000000000367e+00 1.425561999999999996e+00 1.036861700000000042e+01 1.037793699999999930e+01 3.788136999999999865e+00 1.254432699999999912e+01 9.847426999999999708e+00 3.855977000000000210e+00 1.337582699999999925e+01 5.533586999999999811e+00 1.055382700000000007e+01 1.668892699999999962e+01 8.445477000000000345e+00 8.367637000000000214e+00 5.957906999999999620e+00 3.932526999999999884e+00 1.448852699999999949e+01 1.501852700000000063e+01 1.550410000000000121e-01 7.118627000000000038e+00 8.075457000000000107e+00 7.579029999999999934e-01 7.241236999999999924e+00 5.461007000000000389e+00 8.335077000000000069e+00 1.105382700000000007e+01 1.693802700000000172e+01 1.144732699999999959e+01 7.239187000000000261e+00 3.159587000000000145e+00 8.230416999999999206e+00 1.063592700000000058e+01 1.582616999999999940e+00 1.220342000000000038e+00 3.430636999999999937e+00 9.282436999999999827e+00 6.483126999999999640e+00 1.021935700000000047e+01 1.446312700000000007e+01 8.140406999999999726e+00 3.314897000000000205e+00 6.685527000000000442e+00 4.513287000000000049e+00 1.208402700000000074e+01 8.859446999999999406e+00 1.562612700000000032e+01 7.275697000000000081e+00 5.972776999999999781e+00 7.727096999999999660e+00 6.841606999999999772e+00 1.528462700000000041e+01 4.598016999999999577e+00 9.906456999999999624e+00 4.686137000000000441e+00 9.832426999999999140e+00 7.174066999999999972e+00 3.249257000000000062e+00 1.150342700000000029e+01 3.859337000000000018e+00 4.363916999999999824e+00 9.891977000000000686e+00 1.531472699999999953e+01 1.238962700000000083e+01 1.171327000000000007e+00 3.050987000000000116e+00 9.292820000000000524e-01 6.948726999999999876e+00 9.911816999999999211e+00 4.460967000000000127e+00 4.377117000000000147e+00 1.755916999999999950e+00 1.544792699999999996e+01 6.852956999999999965e+00 9.918286999999999409e+00 7.052537000000000056e+00 1.482169999999999987e+00 1.992947000000000024e+00 1.384102700000000041e+01 6.989039999999999697e-01 4.995617000000000196e+00 9.246627000000000152e+00 8.867439999999999767e-01 1.051742699999999964e+01 8.015337000000000600e+00 1.354652699999999932e+01 1.606516999999999973e+00 4.551167000000000407e+00 1.549822699999999998e+01 1.061502699999999955e+01 3.178516999999999815e+00 1.037722699999999953e+01 2.427199999999999913e-01 1.946166999999999980e+00 1.523312699999999964e+01 3.370117000000000029e+00 1.504672700000000063e+01 4.343899999999999845e-02 2.921777000000000069e+00 4.673576999999999870e+00 3.100597000000000047e+00 5.277116999999999614e+00 9.629137000000000057e+00 1.365932699999999933e+01 6.273546999999999763e+00 7.255899999999999572e-01 1.392432699999999990e+01 6.514836999999999989e+00 1.330542699999999989e+01 3.274976999999999805e+00 1.085142699999999927e+01 3.265887000000000207e+00 1.691692700000000116e+01 8.779267000000000820e+00 3.135356999999999950e+00 1.508423999999999987e+00 5.390846999999999944e+00 6.089560000000000528e-01 5.129317000000000348e+00 1.679292699999999883e+01 3.216886999999999830e+00 1.458182700000000054e+01 1.548607000000000067e+00 9.835786999999999836e+00 8.843037000000000702e+00 1.326779999999999904e-01 2.188966999999999885e+00 3.251699999999999730e-02 1.253402700000000003e+01 7.097297000000000189e+00 1.223732000000000042e+00 1.000011699999999948e+01 1.698402700000000110e+01 2.949457000000000217e+00 1.306522700000000015e+01 2.601687000000000083e+00 1.697502700000000075e+01 1.902517000000000014e+00 1.597412699999999930e+01 1.664112700000000089e+01 9.239197000000000770e+00 1.677297000000000038e+00 9.529147000000000034e+00 7.155597000000000207e+00 1.338942699999999952e+01 1.098702699999999943e+01 6.815437000000000189e+00 1.306252699999999933e+01 1.231502700000000061e+01 4.703037000000000134e+00 2.262277000000000093e+00 1.164262699999999917e+01 1.558702700000000085e+01 1.556082699999999974e+01 2.550447000000000131e+00 1.106642699999999913e+01 8.005736999999999881e+00 2.308037000000000116e+00 1.187982700000000058e+01 8.756057000000000201e+00 9.205536999999999637e+00 1.451962699999999984e+01 1.745807000000000109e+00 1.530972700000000053e+01 1.045899700000000010e+01 1.473752700000000004e+01 1.074132700000000007e+01 3.605697000000000152e+00 1.574352700000000027e+01 1.251172700000000049e+01 5.667277000000000342e+00 1.428802699999999959e+01 9.932707000000000619e+00 1.381112700000000082e+01 1.478572699999999962e+01 6.967456999999999567e+00 6.659417000000000364e+00 4.834297000000000288e+00 1.012338699999999925e+01 1.000789699999999982e+01 5.221316999999999986e+00 1.577702700000000036e+01 1.122535000000000061e+00 7.244799999999999851e-02 1.673582700000000045e+01 4.397267000000000259e+00 7.005556999999999590e+00 1.030417699999999925e+01 1.124172699999999914e+01 1.233432700000000004e+01 3.583187000000000122e+00 7.499476999999999727e+00 7.509317000000000242e+00 9.119097000000000008e+00 9.656259999999999843e-01 6.764177000000000106e+00 1.556572700000000076e+01 2.779256999999999866e+00 1.030752700000000033e+01 2.063377000000000017e+00 8.263169999999999682e-01 9.680607000000000184e+00 8.312177000000000149e+00 2.521246999999999794e+00 7.143666999999999767e+00 2.799606999999999957e+00 3.742007000000000083e+00 9.013327000000000311e+00 1.323372700000000002e+01 1.611312699999999865e+01 5.686906999999999712e+00 1.062332699999999974e+01 4.760000000000000342e-02 1.138222700000000032e+01 1.237052699999999916e+01 6.861657000000000117e+00 4.479147000000000212e+00 1.157792700000000075e+01 5.922176999999999580e+00 1.212852700000000006e+01 6.969566999999999624e+00 6.628066999999999709e+00 5.928047000000000288e+00 7.695239999999999858e-01 1.188282700000000069e+01 1.337342699999999951e+01 4.811906999999999712e+00 5.672397000000000133e+00 1.056742700000000035e+01 6.179287000000000418e+00 1.656212700000000027e+01 4.832016999999999562e+00 7.630097000000000129e+00 1.451302699999999923e+01 3.521476999999999968e+00 2.650326999999999877e+00 2.732777000000000012e+00 9.934257000000000559e+00 1.105972700000000053e+01 1.565542699999999954e+01 4.122207000000000399e+00 1.524372699999999980e+01 1.628332699999999988e+01 1.118312700000000071e+01 4.733207000000000164e+00 1.099012699999999931e+01 6.242786999999999864e+00 9.810067000000000093e+00 5.415057000000000009e+00 1.003746699999999947e+01 1.248342700000000072e+01 1.223683999999999994e+00 8.442697000000000784e+00 1.206482699999999930e+01 1.055852699999999977e+01 1.114042700000000075e+01 3.480846999999999802e+00 2.226176999999999850e+00 1.200717000000000034e+00 9.688207000000000235e+00 1.626512699999999967e+01 1.204589999999999966e-01 4.858910000000000173e-01 1.924587000000000048e+00 7.793707000000000384e+00 1.669472700000000032e+01 6.349660000000000304e-01 5.588976999999999862e+00 1.667632700000000057e+01 7.660506999999999955e+00 6.813507000000000424e+00 3.678007000000000026e+00 6.109567000000000192e+00 5.362136999999999709e+00 3.081036999999999804e+00 1.663412699999999944e+01 5.858516999999999975e+00 1.820667000000000035e+00 7.113046999999999898e+00 1.212633999999999990e+00 1.008935699999999969e+01 1.284952700000000014e+01 1.467842699999999923e+01 1.648722700000000074e+01 1.125422700000000020e+01 8.591587000000000529e+00 8.536526999999999532e+00 8.895597000000000421e+00 1.980326999999999948e+00 7.672297000000000367e+00 2.757747000000000170e+00 8.814916999999999447e+00 4.497076999999999991e+00 1.130282700000000062e+01 8.961767000000000039e+00 1.041702699999999915e+01 1.246292700000000053e+01 2.672226999999999908e+00 1.512352699999999928e+01 1.414582700000000060e+01 1.178492699999999971e+01 3.937606999999999857e+00 6.873999999999999555e-02 9.603037000000000489e+00 1.287382700000000035e+01 8.573997000000000313e+00 1.307702699999999929e+01 5.667987000000000108e+00 1.683822699999999983e+01 1.078722699999999968e+01 7.659686999999999912e+00 8.627017000000000380e+00 6.905967000000000411e+00 1.478242700000000021e+01 1.563362700000000061e+01 1.424402700000000088e+01 9.457667000000000712e+00 1.197616000000000014e+00 4.180546999999999791e+00 1.306702699999999950e+01 1.505672700000000042e+01 1.100132699999999986e+01 4.209146999999999750e+00 5.501446999999999754e+00 7.727486999999999995e+00 1.151362699999999961e+01 2.356000000000000108e-02 1.911726999999999954e+00 1.138492699999999935e+01 5.976266999999999996e+00 1.696212699999999884e+01 1.601332700000000031e+01 1.186082700000000045e+01 3.387596999999999969e+00 1.146672700000000056e+01 1.333422700000000027e+01 1.278752700000000075e+01 1.517109999999999959e+00 8.910557000000000727e+00 3.419460000000000277e-01 5.345786999999999622e+00 1.251112700000000011e+01 1.357122700000000037e+01 1.630912700000000015e+01 9.260847000000000051e+00 3.004077000000000108e+00 5.305756999999999834e+00 3.615556999999999910e+00 8.889336999999999378e+00 4.159906999999999577e+00 4.654386999999999830e+00 5.295366999999999713e+00 5.749216999999999800e+00 1.354572699999999941e+01 5.833707000000000420e+00 5.700956999999999830e+00 1.583472700000000088e+01 4.346556999999999782e+00 1.663662700000000072e+01 1.311732699999999952e+01 2.936666999999999916e+00 9.018686999999999898e+00 1.344672699999999921e+01 9.993937000000000737e+00 1.038919999999999982e-01 8.382706999999999908e+00 8.592646999999999480e+00 9.172717000000000453e+00 4.559197000000000166e+00 2.135966999999999949e+00 3.493557000000000023e+00 6.099457000000000129e+00 1.633782700000000077e+01 4.574006999999999934e+00 1.492112700000000025e+01 7.189839999999999565e-01 7.381956999999999880e+00 1.403982700000000072e+01 8.128747000000000611e+00 1.681042700000000067e+01 1.423422700000000063e+01 1.686902699999999911e+01 8.347307000000000698e+00 5.893467000000000233e+00 3.156869999999999954e-01 7.633886999999999645e+00 5.204140000000000432e-01 1.605542700000000167e+01 9.609446999999999406e+00 1.630972699999999875e+01 8.618247000000000213e+00 1.094492699999999985e+01 8.276787000000000560e+00 6.252417000000000336e+00 1.551242700000000063e+01 1.336672699999999914e+01 8.166786999999999352e+00 1.904967000000000077e+00 1.656442699999999846e+01 1.142642700000000033e+01 7.930700000000000249e-02 1.024078699999999920e+01 6.687197000000000280e+00 3.865197000000000216e+00 1.557017000000000095e+00 8.659257000000000204e+00 6.715666999999999831e+00 1.512642699999999962e+01 2.052407000000000092e+00 9.898476999999999748e+00 2.824777000000000093e+00 1.620412699999999973e+01 9.726179999999999826e-01 1.288382700000000014e+01 8.526467000000000240e+00 1.413992700000000013e+01 3.861467000000000205e+00 1.358412700000000051e+01 9.107457000000000136e+00 1.603262700000000152e+01 1.032300700000000049e+01 2.188426999999999900e+00 3.891366999999999798e+00 8.164056999999999675e+00 9.082677000000000334e+00 6.712706999999999979e+00 4.720106999999999609e+00 1.808737000000000039e+00 9.381047000000000580e+00 1.308105000000000073e+00 4.340357000000000021e+00 8.334656999999999982e+00 1.152202699999999957e+01 1.189122700000000066e+01 2.857117000000000129e+00 1.524572700000000047e+01 5.362466999999999651e+00 2.249200000000000157e-02 9.901047000000000153e+00 1.561112699999999975e+01 5.015916999999999959e+00 1.377112699999999990e+01 2.141036999999999857e+00 6.867956999999999645e+00 1.276352699999999984e+01 9.090196999999999861e+00 8.017616999999999550e+00 1.463652699999999918e+01 9.221626999999999796e+00 6.012907000000000224e+00