-7.779719653779677174e+04
-7.780632322735023627e+04
-7.779599443780184083e+04
-7.780170686526439385e+04
-7.780995136570447357e+04
-7.780158942110709904e+04
-7.780174437324301107e+04
-7.779262354046496330e+04
-7.780628380338083662e+04
-7.781425983211566927e+04
-7.780625084362339112e+04
-7.780909906525333645e+04
-7.779687026002373022e+04
-7.780045955922557914e+04
-7.779133194338360045e+04
-7.780424146487728285e+04
-7.780086694456193072e+04
-7.780276569853397086e+04
-7.780679550488291716e+04
-7.781678790020014276e+04
-7.777986388464692573e+04
-7.781245866572823434e+04
-7.780209196819062345e+04
-7.781366258101355925e+04
-7.781670240548155562e+04
-7.779899720892816549e+04
-7.780962842905627622e+04
-7.779747888476989465e+04
-7.780563800785243802e+04
-7.779806156022963114e+04
-7.780626211708880146e+04
-7.780131649671131163e+04
-7.781575224227221042e+04
-7.779431147408290417e+04
-7.779710140777222114e+04
-7.779584193874662742e+04
-7.778300325511065603e+04
-7.780492921989278693e+04
-7.780149901813625183e+04
-7.780419740324116719e+04
-7.781816523635883641e+04
-7.778564751193653501e+04
-7.778812296019903442e+04
-7.779786129132377391e+04
-7.780310236546357919e+04
-7.780824278182949638e+04
-7.780101208243895962e+04
-7.781616604426671984e+04
-7.780605765500795678e+04
-7.780654492795873375e+04
-7.780398609786829911e+04
-7.780335843630782620e+04
-7.780598114766682556e+04
-7.779561865590927482e+04
-7.780441543636374990e+04
-7.781095519209369377e+04
-7.780389573413049220e+04
-7.779357392384910781e+04
-7.780080527068147785e+04
-7.779058158151779207e+04
-7.780069465747479990e+04
-7.779496420284105989e+04
-7.781004024428263074e+04
-7.780088855303819582e+04
-7.780233384909170854e+04
-7.780609795166530239e+04
-7.779238076674475451e+04
-7.779921561846158875e+04
-7.779306400142845814e+04
-7.778957132345346326e+04
-7.780350767051777802e+04
-7.779941370234760689e+04
-7.780650821755532525e+04
-7.780629376155506179e+04
-7.779953775115594908e+04
-7.779497500047857466e+04
-7.778838891050411621e+04
-7.779134138159359281e+04
-7.780022840820849524e+04
-7.780298107253720809e+04
-7.781119373474529129e+04
-7.779297453396655328e+04
-7.779275416962527379e+04
-7.779265676399010408e+04
-7.780759944427495066e+04
-7.780833643793848751e+04
-7.780258492653750000e+04
-7.779691597835415450e+04
-7.780126579593369388e+04
-7.780532624127720192e+04
-7.780984289929675288e+04
-7.781711628455817117e+04
-7.779222139576527115e+04
-7.780771162136389466e+04
-7.779463690661948931e+04
-7.780292764043247735e+04
-7.781027596755785635e+04
-7.778838602901106060e+04
-7.778310246429032122e+04
-7.781232685221153952e+04
-7.779835791904125654e+04
-7.780774301456546527e+04
-7.779957524921253207e+04
-7.779531054108169337e+04
-7.779476680651295464e+04
-7.780631614850027836e+04
-7.779577692394440237e+04
-7.780769788973282266e+04
-7.779110404373264464e+04
-7.781705732676597836e+04
-7.779745347677083919e+04
-7.780548854646710970e+04
-7.781301364668930182e+04
-7.781588752780466166e+04
-7.780262418903979415e+04
-7.780209202832964365e+04
-7.779747177563440346e+04
-7.779475591753389745e+04
-7.780961256629876152e+04
-7.779024292836886889e+04
-7.779177380965027260e+04
-7.780184123619347520e+04
-7.780647928290120035e+04
-7.781538990807918890e+04
-7.781093912083985924e+04
-7.780173299980159209e+04
-7.778846845976305485e+04
-7.780176625513698673e+04
-7.779435668641737720e+04
-7.781354070761316689e+04
-7.780044313532942033e+04
-7.781285500229723402e+04
-7.779890659568780393e+04
-7.781050181067295489e+04
-7.780134856689909066e+04
-7.779846348677601782e+04
-7.780656264500487305e+04
-7.780190481617242040e+04
-7.780230137262573407e+04
-7.778812496480945265e+04
-7.780493124115206592e+04
-7.779099119359279575e+04
-7.780287420590104011e+04
-7.779867927748709917e+04
-7.779401310558964906e+04
-7.781013807349905255e+04
-7.781003302237689786e+04
-7.780046898790312116e+04
-7.779175288104463834e+04
-7.779456094080854382e+04
-7.778748400477507676e+04
-7.779846389996407379e+04
-7.780696330196960480e+04
-7.780861390846181894e+04
-7.781335185996470682e+04
-7.780654197607198148e+04
-7.780707567609792750e+04
-7.780774971075406938e+04
-7.779487872315001732e+04
-7.780109722114795295e+04
-7.780251318755475222e+04
-7.779722977140454168e+04
-7.780659555451756751e+04
-7.779175145238102414e+04
-7.780809663547814125e+04
-7.781314788291759032e+04
-7.778988269199743809e+04
-7.779555073562395410e+04
-7.779848193687414459e+04
-7.780722722093245829e+04
