-2.200249480059734086e+00 9.019662034651215743e-01 4.798295960350927591e-02 6.833000321701425683e-01 6.638434644991252076e-02 -1.460429910864337266e+00 1.813574044582054290e+00 3.574608620161521699e+00 -2.916105851590487852e+00 3.042040037502034444e+00 8.113713192060052481e-01 4.482436425098270227e+00 1.415765731495749913e+00 8.534880493518154365e-02 -2.994881373640171152e+00 -3.640522968914700730e+00 4.439971567555645593e-01 -5.284256095270547959e+00 -1.417212234253858893e+00 2.116165657984470094e+00 2.083795980728797570e+00 -8.742574224055031928e-01 -1.729212029121743655e+00 -2.535883885581087238e+00 1.744433475315410931e+00 1.217422589708764713e+00 -8.268061669796993307e-01 2.753017679265271855e+00 4.284908323080783843e-01 -8.230688625375872647e+00 -2.334845199016993167e+00 -2.011401423032252112e+00 -9.415072022510424521e-01 1.917818916652761052e+00 3.026805735791498364e+00 1.021251001831304350e+01 9.341065382998495759e-01 -1.818138781511927649e+00 -5.012377854330392069e+00 -4.515181483446519262e-01 2.016456212265174575e+00 2.904282375615656608e+00 -1.152270830216259728e-01 -1.625957031849955881e+00 2.832754279756086735e+00 -3.797678063094498846e+00 4.061779230549534603e+00 1.369006617098177392e+00 -9.141522050156613011e-01 1.307116045125020776e+00 6.679654574280274870e-01 -2.779599802826484112e+00 2.309290488363958005e+00 3.640583646954322905e+00 -3.871597799312392674e+00 5.262518958906955424e-01 -3.973640264233088137e-01 5.656648023065328879e+00 2.934770519422369994e-01 3.886579104450945454e+00 2.130587491028880454e+00 2.287174371363064562e+00 -2.982791017135137501e+00 4.678543735391384573e+00 -9.961256654416967393e+00 -3.128002821922883481e+00 3.318421308891092103e+00 1.614691999527916977e+00 3.820913638504351173e+00 -2.517496896913577142e+00 4.317927975269357788e+00 -1.707823534375640495e+00 3.393175625264126527e+00 5.155216530704105349e-01 1.264586909998050845e-01 3.775199420517897586e+00 -1.724466286514353408e+00 -1.376353802099194779e+00 4.769088226024373878e-01 1.415279278737424096e-01 4.155771056586137213e+00 1.436083618796996086e+00 -2.322868999501756626e+00 -1.046024611279374028e+01 4.696979575022997011e+00 4.275870894721820470e+00 5.494375918950961113e-01 1.451310207197410884e+00 -1.480014005262695997e+00 -1.473718915762244119e+00 -4.592844231956014212e-01 5.265054066833538271e-02 -1.173766797083388047e+00 9.535944734320274119e-01 -9.596051988993353765e-01 1.263444311658726837e+00 -2.452698407024634708e+00 3.188342504340953898e+00 -1.077828645792806794e+00 3.872055455712931415e+00 -1.401891029249287657e+00 3.368611303630685505e+00 1.706304526502389507e+00 -2.975961138132931616e+00 2.987551672142095160e+00 -3.280774184850324682e-01 -1.205398053450100537e+00 2.879190977790583084e+00 -7.449052116688054115e-01 -1.665543282055255592e+00 -3.996884581394411828e+00 2.293838157087322305e+00 -2.098849790982491914e+00 2.274516315233092723e-01 1.039555200970177395e+00 1.459580418309628369e+00 -2.770333032046575106e+00 3.671470826004652910e+00 3.266816693075225597e+00 6.444162074065691581e-02 -2.547860599316998376e-01 3.303633864946924792e+00 -1.426768511273659445e+00 1.064652255222672927e+00 2.469269682489555695e+00 1.336706359633597907e-01 3.389817250037247653e+00 2.427627063805877672e+00 -2.514253192897170752e+00 5.431867253726739564e-02 -1.437348601656913694e+00 2.273351605404754228e+00 7.831647725332161469e-01 -1.070048795516043505e+01 -2.460506333750239971e+00 2.117436811492484861e+00 2.386526433713399342e+00 9.826474273354770528e-01 1.164082479115571694e-01 5.518096918677790619e-01 4.336335018543183040e+00 -4.154120408220147276e+00 -2.683756268140058854e+00 1.979722344142786694e+00 -1.050856742960124324e+00 5.913234369579374317e-01 -2.165452166998504069e+00 1.877906136318986396e+00 -3.957543614450974356e+00 3.604697214503944647e-01 -2.126170849653338912e+00 2.612231771825213045e+00 1.086419730606076550e+00 6.308778054814021541e-01 -1.182505977450989620e+00 -2.666775158797351608e+00 2.860168412369065827e+00 1.106179174254529718e+00 -2.445312141252335092e+00 1.356632925001348910e+00 9.315014963614989263e-01 2.090028335306928664e+00 4.460956913292733472e-01 1.582739869460152216e+00 2.580394827188595031e+00 -4.362852864520049501e+00 -1.371750498618714009e-01 -1.431300852301022886e+00 -4.036608642740548092e+00 -9.477909788966494553e-02 6.311164038744921934e-01 -3.211570366440685387e+00 -2.912254852957186113e+00 -4.114958390071526972e-01 -2.352271109243370351e+00 8.570053187671959893e-01 1.458735039520317578e+00 1.032391592750050435e+00 5.120128168740960106e+00 -9.515756430629070950e-01 -1.945974041258074161e+00 -5.314367829543335114e-02 3.395767811685608262e+00 2.934582314655406865e+00 1.847530606840046108e+00 6.191247777390129770e+00 -6.315404302429020511e+00 -1.347750791286163263e+00 2.687718338439110122e-01 -3.890559172473612382e+00 1.674276805995434936e+00 -1.933284103446266444e+00 -1.564174960439174145e+00 1.791629163065857622e+00 -3.247250596400483413e+00 -9.026192637220710191e-01 8.459062768789708642e+00 5.664577820090853422e+00 1.612800181665462906e+00 -4.081705795917285329e+00 1.584922222003847692e+00 -3.363286034322837459e+00 -5.368237073210859300e+00 2.015526501285203054e+00 -2.234770142397941139e+00 -6.137177473438774067e-01 -2.349708233400350288e+00 -7.518022478911351669e+00 3.808248897505607466e+00 -1.859884758551233475e+00 -2.183107419645826219e+00 1.102998205160444112e+00 1.086076231195334696e+00 -7.984643802694474379e-01 -5.778529121618390940e-01 -1.513024401479123426e+00 1.841897319348014539e-01 -1.937353645866342511e+00 -1.507180797731113575e-01 3.815691727552130708e+00 -2.213248978717749171e+00 3.610671430303344032e+00 -1.396850638195258343e+00 -2.514815750315361864e+00 2.450451776896594158e-01 2.308576750067386385e+00 -8.524297832031525468e-01 -5.597112067561912374e-01 2.107600284204938224e-01 -1.115473712950875607e+00 -2.911460896235351647e-01 3.755369014416327644e-01 1.475055375295953874e+00 3.321215584037755519e+00 2.392761359394903753e+00 4.858233522201332311e-01 2.909281629015704862e+00 3.696557595843652955e+00 -5.910611844138081716e-01 4.310019261291498260e+00 -1.360863932713301194e+00 -2.561024134370263106e+00 2.633970450850829703e+00 -6.444054087723991575e-01 4.525829965179516634e+00 -1.876206122768219187e-01 3.071169096065348825e+00 -4.467880380457746270e+00 -5.675978092450354451e-01 -7.308407619933554589e-01 1.104236962765948737e+00 1.745660920066070432e+00 -1.583440752239854588e+00 2.949482887148021870e+00 -8.123987321141822315e-01 -6.327300283518993984e-01 -6.016995359995129355e+00 -7.832609317993970421e-01 -4.637185994961525282e+00 8.401183118079704748e-01 -4.095128498190631738e+00 4.301228658856421028e+00 -2.046039327684305409e+00 1.319401805486464463e+00 -3.856264253011626453e-01 -2.098840535010346287e+00 2.479700648877128266e+00 -2.278002731407987314e-01 2.270074477044487615e+00 5.147518647202899977e-01 3.246570282447771127e+00 -3.417753830855785768e+00 -3.193804556348289303e+00 -2.581810476706218438e+00 1.171675975819800763e+00 -1.518709625259305973e+00 1.361136983891600316e+00 -1.399332267171665700e+00 -4.204293947898148365e-01 -2.639149681487045207e+00 2.337384420708973565e+00 -2.674442189058071850e+00 2.376866798337971431e+00 -5.609936731190509063e-01 -2.005614897779140968e-02 -5.394868047736173899e+00 -4.991231557522102236e+00 3.736772223713514141e+00 -1.470675243588320580e+00 -3.158769159114644065e+00 9.313415737316474985e-01 4.396766746462035691e+00 8.033685028446646559e-01 2.907493683729553080e+00 1.034044297998739426e+00 -4.904587430707192830e+00 5.702767961164170174e+00 -5.540505627242623632e+00 -1.238509751139456272e+00 -7.912930587391989734e-01 -4.649459414026774873e+00 2.051208273907025426e+00 5.829544954761654019e-01 2.264992948336476797e+00 -3.959506908987220353e+00 -8.073161749648220809e-02 1.307111931359622670e+00 -2.274824847637950398e-01 -9.582805664411452318e-01 -5.768055474914812741e+00 1.614029169078146975e+00 -3.626279056223758457e-01 1.522252605708424855e-01 2.429245316269357247e+00 1.526415736291308223e+00 -2.531997405721226446e+00 -3.192491750965618547e+00 3.629288275612473136e+00 2.745851499941770690e+00 -1.155515048453340965e+00 2.042942690780880977e+00 8.576172413701641517e-01 1.531981660874945916e+00 -1.733606559008270098e+00 2.060996978671818969e+00 -3.489287068922103163e+00 -5.960471709204477442e+00 -1.046222072018483162e+00 -1.452967540432172910e+00 3.858244002609465095e+00 9.308396943530785617e-01 1.780037086394669288e+00 -6.558278440429829992e+00 -1.056568706215394560e+00 2.925503234421786836e+00 -5.386924366752430388e-02 1.841280768758973396e+00 -1.797311815742666186e+00 -2.229861906057325704e+00 -2.534033205372614450e+00 5.668831453512495067e+00 4.804415186380610048e-01 -4.537476549242230206e+00 4.116936597007341270e+00 4.620777727450504635e+00 -1.061815299760004105e+00 1.319251138828759107e+00 -6.133413378099505930e-01 -1.974167218193319195e+00 -3.452311002861901290e+00 -4.845897368213762380e-01 1.601233301807338361e+00 -2.953778172444319061e+00 -3.851621868759863787e+00 -1.222960746375965080e+00 5.538554159781897468e+00 -3.989046315648995256e-01 -2.700135739293292758e+00 -2.830697911277709089e+00 5.578748218824767235e+00 1.768899580799971671e+00 -2.895822931295126246e+00 -1.417336161436477004e+00 1.432849684973409810e+00 -4.469220439536179534e-01 -8.661167949033262703e-01 -3.270722199100052130e+00 -3.502372442432803434e-01 6.750637596224594583e-01 9.958675266629657408e-01 1.413904766873781860e+00 7.027170048492032972e-01 3.202516997240802965e+00 -1.000781933651678113e+00 -4.460956913292733472e-01 1.326632776614985743e-01 4.820309747437542813e-01 -2.779944330678575160e+00 4.719079236962297585e+00 4.434399472323909741e+00 3.578950185318548360e+00 1.689782102001571307e+00 -6.476300866238396403e-02 -8.288275684521937414e-01 -8.716174134612687530e-01 1.223721792974614475e+00 4.804579222775859471e+00 9.569955289749118021e-01 -7.896367539457865847e-01 2.927212503944699673e+00 9.535687623982894712e-01 -5.489230626879280983e+00 -2.769153409818668088e+00 -3.009669331805012504e+00 9.518564075513279432e-01 2.933423775475164863e+00 1.268410654935590465e+00 -1.452656436923940975e+00 1.216358152912004748e-01 -8.324271131755364150e-01 -4.636732966547059132e-01 1.176395493172777806e+00 1.192419123619075982e+00 -4.188538226423402233e-01 1.441608405726652276e+00 -1.077778766387354814e+00 -3.258622586622872852e+00 -2.136126161916755528e+00 3.130117811558184471e+00 1.628255598266147741e+00 -7.139306151037657644e-01 -1.173282915428435880e+00 9.691774167600534229e-01 -3.249119788553247901e+00 1.346054377280119230e+00 9.754344539305725981e-01 -3.358851395223679148e+00 -8.636804173462979684e-01 1.453650939708933221e+00 -4.948119296149950941e-01 2.475951980158103971e-01 1.872476480214161354e+00 -3.837022629582660382e+00 -1.890871696412467440e+00 -1.031587351614720705e+00 -9.438565222478333183e+00 3.723402486169669512e+00 -1.481032676419401950e+00 7.838810819331614166e-01 -1.377725742859463143e+00 2.367501811409183254e+00 1.015431566455008566e-02 -3.719834823128161272e+00 1.926929878568216292e+00 -1.151435735840444119e+00 -5.899345269154018107e-02 -4.144958024237216376e-01 1.371691363241116512e+00 -3.033593448698373329e+00 5.855369117048264682e-01 4.069732681726097923e+00 -2.772332836250729571e+00 2.316412444709428975e+00 1.098463807250381619e+00 -3.523059540178530291e+00 1.293948910527032758e+00 1.800647051039180768e+00 -6.453289491042739634e-01 1.364073183944498613e-01 -4.767509568552851240e-01 -1.531803226300802789e+00 -2.348101293791715172e+00 1.880283892719092076e-01 8.567672345947806578e-01 2.362738585298851390e+00 -6.936240406573646045e-01 3.728984351594224478e-01 -2.667689957377755494e+00 1.037442782438249944e+00 -2.199477120606239566e+00 -3.278387172478073985e+00 -4.671346188606723793e+00 -1.317189628143633051e+00 3.217139890569046035e+00 3.496181225508654400e-01 -1.239066137909550225e+00 -7.444789227294266176e-01 -8.001242846075832249e-01 -1.598265220072604853e+00 7.199721938115591913e-01 -4.633314427501232124e+00 -2.250880676138273806e+00 -2.250182878682620125e+00 -1.246105304726384588e+00 2.032801744853874604e-01 -1.326077418286241427e-01 -3.678561929109638307e+00 1.129830239969591005e-01 6.027997625552363736e+00 7.855594982155887918e-01 1.340294591502096067e+00 -4.393254105032728063e+00 -2.745534225785442040e+00 1.623754624699944582e-01 -2.587584146442459820e-01 -9.316732460668698534e-01 -3.491376861744341031e+00 -3.773040207904566401e+00 2.704030960904624692e+00 -9.935381070062880848e-01 5.522204513427800165e+00 -1.156499266824837724e+00 2.708481540844700497e+00 -1.215542084701155545e+00 5.704556934891671816e+00 4.701900152659806431e-01 3.973299335925720044e+00 -4.951123373331917321e+00 1.401413832463107356e+00 -1.600916541871683973e+00 5.402803501189120672e-01 3.530299767279196366e-01 1.208859272811932062e+00 -2.581110108147190441e-01 2.273351605404754228e+00 -3.019827761234960550e-01 2.703625755012911469e+00 3.035343341654592741e+00 4.533549960169738213e+00 3.466656731246446910e+00 -6.367435207184266588e-01 3.009785031456834181e-01 2.625640075919664973e+00 -1.493296325291830984e+00 3.820196814883731751e-01 -2.738974826858161737e+00 5.316527556377339536e-01 1.179966241538334071e+00 -3.245009622699865037e+00 -2.622584576670221601e+00 -2.433784856386167483e+00 -6.349098097922208916e-01 -2.618477496140886984e+00 2.256208002328821571e+00 -1.329482073373848827e+00 2.587501871134497922e+00 1.559064121152702320e+00 3.155494601857751769e-01 1.848011403170949640e-01 -2.376356691428606727e+00 -5.043563795592759247e-01 -5.870378704323928609e+00 -2.586397839345781158e+00 -7.754252371573544522e-01 -1.415934910097746968e+00 1.662073320941953147e+00 1.153641742535178594e+00 -2.565471114765615734e+00 1.189290605033816117e+00 -8.022325893741126812e-01 4.459040412837891765e+00 -1.575585002991496397e+00 -2.162845582398129185e+00 -1.520172583079007378e+00 -1.055824114678337367e+00 -3.835092245169598790e+00 -2.015487934734596087e-01 -2.179519187777327893e-01 -1.218741565739532184e+00 -1.554738496836593820e+00 1.385490475048388181e-01 -3.637649503784123883e+00 5.165043287798831706e-01 4.561945740050839859e+00 1.920317514911435763e+00 -2.610582151900572079e+00 -2.487130623406782703e+00 1.211879805055491532e+00 3.202039800454623109e+00 -9.018443331652027384e-01 -5.652426785546197374e-01 -3.725920110593310408e+00 3.762506911602715665e+00 -2.603811408275964023e+00 2.948416393468562546e+00 -2.197095250440736225e-01 1.843264117901535437e+00 -8.835067096824701371e-01 -2.926510078502972956e+00 2.229151767305477816e-01 4.019537544779757887e+00 7.122884513789092154e+00 2.891025766620259341e-01 3.506878043985079074e+00 -2.822470380481497010e+00 1.248055229525086629e+00 -1.065230239261107048e+00 1.765566916606831294e+00 8.217817167665874001e-01 -2.455133756140313928e+00 1.142208045831817342e+00 4.692106305688265699e+00 6.371677527751062886e-01 -2.230652263234436994e+00 1.713197654647591328e+00 -2.311465127597531755e+00 -1.367256209921283050e+00 -1.185252430074900332e+00 -8.711206762894475875e-02 2.264951810682495625e-01 -1.223269793001497741e+00 1.498517207802702256e+00 9.422425378159537956e-01 -2.458086411254804204e+00 -2.794239151216318939e-01 2.132884514783048024e-01 -1.138504114311497561e+00 1.914731021500807984e+00 -3.503660051002411180e+00 3.406552561897417952e-01 4.425442262390209436e+00 -3.292292727965021593e-01 1.439719673188246896e+00 1.381284664149499797e+00 -9.283215557087629577e-01 -8.777016724850676965e-01 -3.694367015769161461e-02 -2.625644189685062635e+00 2.705717090497173238e+00 -4.266354212693975967e+00 2.635467861455740302e+00 1.230673542276738974e+00 -4.122959663770843219e-01 4.790253548997630562e-01 1.727199369400720164e+00 1.994221824509086360e+00 -1.124600615707248546e-03 -5.459290128091189409e+00 -1.679928091211083108e-01 3.124887158854492863e+00 1.654339956214188501e+00 -9.741545586710870230e-01 1.765882133880461113e+00 -2.751494043405947831e+00 -2.464135189052044428e+00 -1.214098153046420103e+00 6.422107149325096964e-01 1.925456122114345137e+00 1.213367445467581573e+00 -6.882293515584232413e-01 1.668015140838842614e+00 -2.063218411986796230e+00 2.196327518973314685e+00 1.287352487711169946e+00 -6.237426336645896185e+00 -3.532037833159896167e-01 3.669890111650430775e+00 1.759644122874908012e+00 -1.030984684983898392e+00 2.681501410481221814e-01 1.300392095581816565e-01 -4.716151264440195057e+00 2.810503951159080582e+00 1.123995892193726975e+00 4.952377043336990692e-01 -1.645756584711040249e+00 -1.132236792727483010e+00 -5.359238725623176602e-01 1.582001448571192181e+00 5.121103131140311016e-01 8.205876963597871221e-01 -2.512618485372098309e+00 2.619514679241884636e+00 -4.819255595054278141e-01 3.457084513385729085e+00 -8.105197697685972980e-02 -1.760705988568294078e+00 5.991331120338370120e+00 2.916937860642254687e+00 -2.812989693900886490e+00 1.173660867624386706e+00 -2.901749838792447189e+00 8.697543919566015358e-01 -2.405513003687683060e+00 1.274212092588269396e+00 -9.500607489550544349e-01 7.920854727990092048e-01 -1.716460899049639055e+00 -1.686455608456528088e+00 1.502149148428555181e+00 -1.349711000498360625e-01 1.827835954996613443e+00 1.327337258939411402e-01 1.048777748772056428e+00 -8.767956156561348413e-01 4.170570327605823913e+00 -2.045604811214130514e+00 -2.011852394564019597e-01 -2.821142662699258175e+00 -2.186248279527279959e+00 4.008093049442226219e-01 -7.836229431544303736e-01 -2.446656828316841614e-01 2.055969443134658459e+00 8.218634778538748131e-01 8.356903575775841420e-01 1.589898335473531654e+00 -6.554117880950319552e+00 8.566268523505701227e-01 -1.842114834693439729e+00 -9.461552429302274581e-01 -6.101763095567828143e-01 -5.021307296347655935e+00 -2.841729487413404698e+00 -1.006171994764546662e+00 -2.880741353124994797e-01 -4.238732849149067228e+00 7.401872369778525140e+00 -3.026435496905668932e-01 -3.489511783356974428e-01 -1.024030364578399910e+00 3.968525825401892693e+00 1.633232225956506412e+00 1.328311707118087881e+00 1.261018732735868397e+00 1.603720072990493239e+00 -1.446363918526863079e+00 1.384475403436405738e+00 7.033302130038585176e+00 2.627577659422172474e+00 7.017684219704674931e+00 3.722073225725405776e-01 -9.260903522009651390e-01 -2.911854789272219968e+00 2.110498946148578803e+00 3.286615731715635258e-01 2.783052794657518980e+00 8.521099379434496912e-01 2.710297768267964091e-01 -3.195925716631688118e+00 1.626998842937026346e+00 1.571326741583781939e+00 -1.373266935388590904e+00 1.336743897742855625e+00 -3.783913404072435926e-01 1.482919352075108277e+00 -1.395871047809834176e+00 -1.062318207579922569e-01 4.977220072576153065e+00 3.728716956843347585e-01 2.647841039331893853e+00 -1.925282315526275267e+00 -2.611989059666724344e+00 -3.079002733824692584e+00 2.394589413893687180e+00 1.380739076013575706e-01 -2.883377248303830687e+00 9.973916767429639174e-01 1.922287494316454071e+00 1.857544540260385846e+00 2.657353607594339362e-01 -6.618521449361044695e+00 2.013937045179509777e+00 3.331314878090106291e+00 4.184730936547454760e+00 -8.215390046080992548e-01 2.110670181633274911e+00 -1.081831339525164193e+00 1.958365216857844482e+00 -2.583310458414502797e+00 4.828275025689625632e-01 -2.548455552637699295e+00 3.608055075510148701e-01 2.013207880262695149e+00 -6.121267485761598959e-01 -1.483375465813623562e+00 -2.330539115086525115e+00 -3.025401399128719859e+00 -3.945612666355116982e+00 -4.599374834525508104e-01 -1.029829231127705080e+00 2.454851448989868512e+00 -2.026521053532316596e+00 9.820329336291348798e-02 -1.838508605101324855e+00 1.809649512392261128e+00 2.183838641445339235e+00 1.084698119786969395e+00 -8.123915330247355460e-02 1.265805612997239704e+00 1.562959856984708740e+00 2.710997108385642118e+00 -4.776392730709385859e+00 1.770062747966286265e+00 -1.533492441217400248e+00 1.582782549776157621e+00 3.748488741787995071e+00 3.836265696749408427e+00 -6.445241937482693896e-03 -1.727068757349330186e+00 2.830149237817736640e+00 -9.324605179199323413e-01 -1.772767548715540986e+00 1.063537939020461121e+00 -1.789178387329935838e+00 9.433069746127138444e-01 3.531864540792501117e+00 -3.409160689159817181e+00 -3.685062192659320779e+00 -1.188296616469498801e+00 -2.959977616899265307e+00 -1.169659716554054096e+00 -3.422486717946306989e+00 1.881728338594502059e+00 2.183679233036162959e+00