-9.253398114491911031e+01 2.100884959042940281e+01 2.237966094742520687e-02 2.100884959042940281e+01 -9.215424195921221440e+01 1.204318769503323239e+01 2.237966094742520687e-02 1.204318769503323239e+01 -1.189765295143448043e+02
-6.548935668031775492e+01 -2.104721618799417016e+01 -4.680282584322758233e+00 -2.104721618799417016e+01 -7.441425057024240175e+01 9.129089249794345662e+00 -4.680282584322758233e+00 9.129089249794345662e+00 9.396604430915425965e+00
-1.279778074909178684e+02 2.896803575972827716e+01 -3.901023966532135034e+01 2.896803575972827716e+01 -7.437926969801675625e+01 -2.582706395954139467e+01 -3.901023966532135034e+01 -2.582706395954139467e+01 -3.461309570808600711e+01
-6.447672778800867377e+01 2.125708306384674984e+01 1.793293584592634815e+01 2.125708306384674984e+01 -3.054464426001029054e+01 2.212042648970502512e+00 1.793293584592634815e+01 2.212042648970502512e+00 -7.653205692110654468e+01
-9.985821882752392753e+01 -1.179390785346583392e+01 3.456780994737034263e+01 -1.179390785346583392e+01 -1.647913466587124276e+02 2.912625351015135866e+00 3.456780994737034263e+01 2.912625351015135866e+00 -1.223043379466573555e+02
-1.205789717711625144e+02 -5.532706565363264772e+00 -8.018514064346694781e+00 -5.532706565363264772e+00 -3.350089550758037404e+01 -1.146988259765828211e+01 -8.018514064346694781e+00 -1.146988259765828211e+01 -8.905017432476378758e+01
-9.775360482868155998e+01 -3.910433618606472805e+01 3.935829523695760201e+01 -3.910433618606472805e+01 -7.334463648888849718e+01 -1.057082442011809142e+01 3.935829523695760201e+01 -1.057082442011809142e+01 -6.013537372533797765e+01
-7.439453568928645666e+01 5.863837930726212733e+01 -8.185678704761611968e+00 5.863837930726212733e+01 -2.378290143110503152e+01 -2.766928112294478481e+01 -8.185678704761611968e+00 -2.766928112294478481e+01 -9.900686427148134783e+01
-4.917188743793288808e+01 -3.389818068527178241e+01 -1.183808428136797630e+01 -3.389818068527178241e+01 -1.068870275265612690e+02 -3.807937635660053388e+01 -1.183808428136797630e+01 -3.807937635660053388e+01 -1.184370378057298581e+02
-1.681012087808966839e+02 8.415680396857419865e+00 2.840847103332934864e+01 8.415680396857419865e+00 -6.486873981406205303e+01 -2.707575050451811194e+01 2.840847103332934864e+01 -2.707575050451811194e+01 -1.135854800272672662e+02
-6.382748375200426949e+01 -1.984031427478497278e+01 -1.519960771664599752e+00 -1.984031427478497278e+01 -4.499989479965714168e+01 -2.139032832045430510e+01 -1.519960771664599752e+00 -2.139032832045430510e+01 -2.356692541939496266e+01
-9.112986019265828475e+01 -8.105177671240854309e+00 -8.183966819853843333e+00 -8.105177671240854309e+00 -1.401813804935209191e+02 -3.122039302579215203e+01 -8.183966819853843333e+00 -3.122039302579215203e+01 -3.801301620801733350e+01
-1.623060371273863609e+02 -2.627292789409871787e+01 1.408922172325318556e+01 -2.627292789409871787e+01 -1.257166467735327586e+02 -2.227696616440461241e+01 1.408922172325318556e+01 -2.227696616440461241e+01 -1.324064948733044673e+02
-9.662048543587732752e+01 -3.970194385643316171e+00 -1.545885359866104203e+01 -3.970194385643316171e+00 -1.621196753374408104e+02 -9.584608943267925341e+00 -1.545885359866104203e+01 -9.584608943267925341e+00 -1.544748061121207456e+02
-7.677988835342682705e+01 1.028681758364446708e+01 2.868535997684556449e+01 1.028681758364446708e+01 -1.091688867620165837e+02 8.748341062042268135e+00 2.868535997684556449e+01 8.748341062042268135e+00 -5.301477533268906228e+01
-5.629938567642447111e+01 -1.839421015631117129e+01 1.817971704706564040e+01 -1.839421015631117129e+01 -7.645537295604896144e+01 -4.725946224854688182e+00 1.817971704706564040e+01 -4.725946224854688182e+00 -1.057492162437752370e+02
-2.409645160226730454e+01 -3.535533158335057635e+01 -3.383335613427261990e+01 -3.535533158335057635e+01 -7.961915854047443020e+01 2.111276004176804477e+01 -3.383335613427261990e+01 2.111276004176804477e+01 -3.705648879096301584e+01
-3.359390754025445602e+01 -5.496809228821472715e+00 2.537604978199142547e+00 -5.496809228821472715e+00 -3.657842369023607887e+01 -3.483880697417514227e+01 2.537604978199142547e+00 -3.483880697417514227e+01 1.856680345103865148e+00
-1.051659883967738978e+02 1.140466274848023431e+01 5.942014584134330590e+01 1.140466274848023431e+01 -1.249562586759103056e+02 2.336152193348734940e+01 5.942014584134330590e+01 2.336152193348734940e+01 -1.106525168668595285e+02
-1.115345654404349318e+02 1.465638394546541257e+01 4.556820536280249634e+00 1.465638394546541257e+01 -7.934266927996804952e+01 1.430188527760396866e+01 4.556820536280249634e+00 1.430188527760396866e+01 -6.135561596530429540e+01
-1.446727076100640375e+02 -1.428930194219664074e+01 -4.121403599706122378e+01 -1.428930194219664074e+01 -9.616701903081025193e+01 -2.728975855384647886e+01 -4.121403599706122378e+01 -2.728975855384647886e+01 -1.453372871819590273e+02
-9.625222054728422449e+01 -9.876960241014076658e+00 -7.186449812136704196e+00 -9.876960241014076658e+00 -9.555455498925188351e+01 -8.986857185661527581e+00 -7.186449812136704196e+00 -8.986857185661527581e+00 -1.219282799942866262e+02
-6.344834345086771066e+01 -1.632516021376075699e+01 2.694143347603723271e+01 -1.632516021376075699e+01 -1.164507859998928438e+02 2.793058519434558562e+01 2.694143347603723271e+01 2.793058519434558562e+01 -9.834191122690492648e+01
-7.103058237398657582e+01 2.518098784897935261e+01 -1.828978245503694211e+01 2.518098784897935261e+01 -9.525029067711142261e+01 -5.283779006024271752e+01 -1.828978245503694211e+01 -5.283779006024271752e+01 -2.385667967585576577e+01
-6.349166537959570178e+01 2.090971706636140937e+01 9.314649596178020019e+00 2.090971706636140937e+01 -1.129053047729575354e+02 -3.620090346706636808e+01 9.314649596178020019e+00 -3.620090346706636808e+01 -5.152698346603985868e+01
-9.519715506521959014e+01 1.600308271194621668e+01 1.436623399628660458e+01 1.600308271194621668e+01 -8.337545409667532681e+01 -2.227340313087180945e+01 1.436623399628660458e+01 -2.227340313087180945e+01 -1.096230995634391121e+02
-2.493045188606356888e+01 -1.313283079552558874e+01 1.564402887193539549e+01 -1.313283079552558874e+01 -1.789188671049429402e+01 -2.633170214073753357e+01 1.564402887193539549e+01 -2.633170214073753357e+01 -7.734368565134145967e+01
-9.107476062106594838e+01 -1.384332041530223767e-01 3.266301197292142522e+00 -1.384332041530223767e-01 -5.749588081297641651e+01 -1.437831391646068191e+01 3.266301197292142522e+00 -1.437831391646068191e+01 -5.880578934562284132e+01
-8.360098894029030703e+01 -8.007480439329491162e+00 1.195143728289261631e+01 -8.007480439329491162e+00 -1.040671452018067384e+02 8.877290369268367343e+00 1.195143728289261631e+01 8.877290369268367343e+00 -1.442693765000057056e+02
-9.350641092186957337e+01 1.845013164999326705e+01 1.734366555240739771e+01 1.845013164999326705e+01 -1.031081170665935645e+02 -2.174666905207208600e+01 1.734366555240739771e+01 -2.174666905207208600e+01 -3.730158568411702902e+01
-7.654858174672904170e+01 -2.978643459061021659e+01 1.494137354920890060e+00 -2.978643459061021659e+01 -4.373196340367585577e+01 2.124713288181409254e+00 1.494137354920890060e+00 2.124713288181409254e+00 -4.957627464472172818e+01
-4.370825935562927356e+01 2.273375392239550763e+01 1.323027230782054531e+01 2.273375392239550763e+01 -7.071279764231202591e+01 3.926514908595308828e+00 1.323027230782054531e+01 3.926514908595308828e+00 -6.761826096916144024e+01
-3.680537274438419360e+01 -1.845700305014165465e+01 1.962675134360161877e+01 -1.845700305014165465e+01 -7.686818362823861150e+01 3.152145708915004008e+01 1.962675134360161877e+01 3.152145708915004008e+01 -1.086249613116270751e+02
-1.235015246855742674e+02 3.304831202680118452e+01 -3.276367544171693424e+01 3.304831202680118452e+01 -5.922510660941874505e+01 -5.557287913385073352e+01 -3.276367544171693424e+01 -5.557287913385073352e+01 -9.341086138622597446e+01
-1.431344243620447116e+02 -1.142351167061375961e+01 1.293943483309413978e+01 -1.142351167061375961e+01 -1.083220667942173776e+02 9.650686157381803909e+00 1.293943483309413978e+01 9.650686157381803909e+00 -7.459939419186265752e+01
-1.507287157842781369e+02 -5.860925291477521171e+00 1.226485209434139279e+01 -5.860925291477521171e+00 -8.292445400454880655e+01 -5.001554968628988185e+00 1.226485209434139279e+01 -5.001554968628988185e+00 -1.320038637264244130e+02
-1.154866355003348843e+02 -3.354319644139864831e+00 -7.826904176082420506e+00 -3.354319644139864831e+00 -1.340758293710080693e+02 5.345797314025259261e+00 -7.826904176082420506e+00 5.345797314025259261e+00 -5.479471117807462832e+01
-4.638743251568415360e+01 2.414644865752695324e+00 -1.237019418200745235e+01 2.414644865752695324e+00 -6.849256054790883752e+01 8.406000316880892775e-01 -1.237019418200745235e+01 8.406000316880892775e-01 -8.369400923354928068e+01
-5.309792970059339723e+01 5.147388437663072835e+01 7.484975039454560886e+00 5.147388437663072835e+01 -6.078468081680308188e+01 1.760905992402187081e+01 7.484975039454560886e+00 1.760905992402187081e+01 -7.921683195204307992e+01
-1.441697104119838855e+02 5.343694279434872740e+00 3.042547151194100152e+01 5.343694279434872740e+00 -1.320078621332099260e+02 -2.362599167838434155e+01 3.042547151194100152e+01 -2.362599167838434155e+01 -7.895478283410865572e+01
3.409250319823283348e+01 -3.862734388344654235e+01 -1.934301199489420142e+01 -3.862734388344654235e+01 -4.812065761507948025e+01 1.351163710768405402e+01 -1.934301199489420142e+01 1.351163710768405402e+01 -6.928670326313277883e+01
-1.559892077213224866e+02 -1.464564971642200142e+01 -2.546010686261072919e+01 -1.464564971642200142e+01 -1.092313414874682991e+02 6.178706335420701912e+00 -2.546010686261072919e+01 6.178706335420701912e+00 -1.362735312630049975e+02
-1.179092156188049190e+00 1.903091582972352569e+01 2.149376182220169795e+00 1.903091582972352569e+01 -9.741167660850412346e+01 2.724522586433258908e+01 2.149376182220169795e+00 2.724522586433258908e+01 -4.565474218158554010e+01
-5.609519226962813576e+01 -3.581106160976923292e+01 2.897584405841597288e+01 -3.581106160976923292e+01 -2.558252557176302489e+01 -4.121143554358508965e+01 2.897584405841597288e+01 -4.121143554358508965e+01 -3.607054951425956801e+01
-1.031432550314600007e+02 6.218203017317568637e+00 -2.642992807738937699e+01 6.218203017317568637e+00 -1.267718516642542994e+02 -7.239824542909540916e+00 -2.642992807738937699e+01 -7.239824542909540916e+00 -7.399168070229838179e+01
-4.847954966877887983e+01 -1.447448439311713742e+01 -4.042360845025312621e-02 -1.447448439311713742e+01 -7.440642644901517144e+01 -8.263834468302663439e+00 -4.042360845025312621e-02 -8.263834468302663439e+00 -9.975819409868195464e+01
-6.945585485941759885e+01 -1.896808029664987183e+00 9.653863051229841785e-01 -1.896808029664987183e+00 -8.731817575140648557e+01 -3.115544056890937696e+01 9.653863051229841785e-01 -3.115544056890937696e+01 -1.012192782803412996e+02
-7.513290592683458158e+01 1.368931604493855581e+01 1.347397216180168611e+00 1.368931604493855581e+01 -6.540990620210978079e+01 3.476101651416038152e+01 1.347397216180168611e+00 3.476101651416038152e+01 -7.857298905020566337e+01
-1.186532982427644072e+02 1.390165487631512242e+01 -3.440445302524328497e+01 1.390165487631512242e+01 -1.171591307802568167e+02 -3.259687907730335610e+01 -3.440445302524328497e+01 -3.259687907730335610e+01 -4.416950037378349947e+01
-1.083213211707082735e+02 -6.338474041761715583e+00 -4.932045948292102366e+01 -6.338474041761715583e+00 -8.255652648164247864e+01 2.315232241863899176e+01 -4.932045948292102366e+01 2.315232241863899176e+01 -1.166028115443052542e+02
-1.162555636733676039e+02 2.734858661191041307e+01 2.367204597625052287e+01 2.734858661191041307e+01 -9.316567325633798191e+01 -3.277485843197354143e+01 2.367204597625052287e+01 -3.277485843197354143e+01 -6.446123251727698289e+01
-6.557737731069110509e+01 2.905713626297282204e+01 -1.594602823930948965e+01 2.905713626297282204e+01 -9.382717154388470249e+01 3.016196625340375448e+01 -1.594602823930948965e+01 3.016196625340375448e+01 -9.142908862028622252e+01
-6.513196550348061464e+01 1.412666361644895119e+00 1.109763141616653392e+01 1.412666361644895119e+00 -1.004472333403780766e+02 -2.188040108736554856e+01 1.109763141616653392e+01 -2.188040108736554856e+01 -1.178735077053190707e+02
-2.417507026542191184e+01 3.134349030263104963e-01 3.218047487673167950e+01 3.134349030263104963e-01 -6.129652278302492618e+01 1.164814983203275212e+01 3.218047487673167950e+01 1.164814983203275212e+01 -6.749807673731704938e+01
-5.454341288204648919e+01 1.247346975511566569e+01 -2.033227684156198833e+01 1.247346975511566569e+01 -8.709674226492745674e+01 1.851107500025744201e+01 -2.033227684156198833e+01 1.851107500025744201e+01 -1.011401111237608497e+01
-6.306400265901918800e+01 4.363418585052517784e+00 -1.589795607233737140e+00 4.363418585052517784e+00 -1.220936952044242219e+02 8.929998678518149546e+00 -1.589795607233737140e+00 8.929998678518149546e+00 -1.072982130636004854e+02
-1.437880736744343153e+02 -1.451631986983622191e+01 -3.170639851249561403e+01 -1.451631986983622191e+01 -1.161182161862114555e+02 -3.436158619141648884e+00 -3.170639851249561403e+01 -3.436158619141648884e+00 -5.822158577505943811e+01
-3.103484481700286679e+01 2.850058212538285574e+01 1.471643539287578761e+01 2.850058212538285574e+01 -1.085369639429306332e+01 3.203667022454565938e+01 1.471643539287578761e+01 3.203667022454565938e+01 2.207611260821849442e+01
-6.149000781326403597e+01 3.399940969690966597e+01 -4.298174230669848939e+00 3.399940969690966597e+01 -1.037350513426979290e+02 -2.380090863720218763e+01 -4.298174230669848939e+00 -2.380090863720218763e+01 -5.085884422331993449e+01
4.629064721183884679e+00 8.631319782444572652e+00 1.278150261170363677e+01 8.631319782444572652e+00 -6.979226824180048361e+00 6.877316096497053444e+00 1.278150261170363677e+01 6.877316096497053444e+00 -4.895405828961042261e+01
-4.698451911443095241e+01 3.620602327530274067e+01 2.315594059334811305e+01 3.620602327530274067e+01 -1.227526598432200586e+02 -3.417711025484928200e+01 2.315594059334811305e+01 -3.417711025484928200e+01 -7.507852187624123985e+01
-1.263604495584507958e+02 -8.802127644319276412e-01 9.520109371874989179e+00 -8.802127644319276412e-01 -1.164768649517135657e+02 3.779078555161099473e+01 9.520109371874989179e+00 3.779078555161099473e+01 -1.003499983538926301e+02
-8.166812718577850205e+01 -8.642733667205894366e-02 -2.696254835962811569e+00 -8.642733667205894366e-02 -8.196398457175776286e+01 1.248015557659059027e+01 -2.696254835962811569e+00 1.248015557659059027e+01 -5.666165348351695741e+01
-6.993947190567234884e+01 -2.751282301058885338e+01 2.150699692615698932e+00 -2.751282301058885338e+01 -1.340338862762994552e+02 -3.554838307821102106e+00 2.150699692615698932e+00 -3.554838307821102106e+00 -6.781504506124025511e+01
-7.461823369581935594e+01 8.167828709057712189e+00 3.686822203797814268e+01 8.167828709057712189e+00 -1.150304212698481336e+02 -1.181890983957282870e+01 3.686822203797814268e+01 -1.181890983957282870e+01 -6.870087588160704684e+01
-6.624449730116538149e+01 3.941149368787509388e+01 1.289541886392694403e+00 3.941149368787509388e+01 -8.530391835334407347e+01 1.172305223876950109e+01 1.289541886392694403e+00 1.172305223876950109e+01 -7.129453433940588525e+01
-8.526164061402337779e+01 -4.718194387852512506e+01 -1.911629013177160497e+00 -4.718194387852512506e+01 -5.731746307552122488e+01 1.136184430664732581e+01 -1.911629013177160497e+00 1.136184430664732581e+01 1.469964495495732715e+00
-1.323132868228983909e+02 -1.525731272604043731e+01 7.933627158900286247e+00 -1.525731272604043731e+01 -1.218788502514658063e+02 1.470746937689422573e+01 7.933627158900286247e+00 1.470746937689422573e+01 -1.341283409470632080e+02
-8.047176528256231620e+01 1.686939212779956776e+01 -1.208364578626334662e+01 1.686939212779956776e+01 -8.104872661509386944e+01 5.035267667820034987e+00 -1.208364578626334662e+01 5.035267667820034987e+00 -9.519210024209854737e+01
-4.987265973753641646e+01 -2.900798578940496952e+01 1.615744261582327113e+01 -2.900798578940496952e+01 -1.294540420649111070e+02 8.053789399726515086e+00 1.615744261582327113e+01 8.053789399726515086e+00 -9.972778178437629037e+01
-4.321462083827381662e+01 -9.810552296791740901e+00 8.215778227460699412e+00 -9.810552296791740901e+00 -1.865154445889191237e+01 3.914373933473678591e+01 8.215778227460699412e+00 3.914373933473678591e+01 -6.560474145348941022e+01
-4.909056190288309551e+01 -1.694114715085016698e+01 -1.086651267222672246e+01 -1.694114715085016698e+01 -1.210777777007089924e+02 1.384385673296003638e+01 -1.086651267222672246e+01 1.384385673296003638e+01 -5.591562287527754904e+01
-1.047045811944695402e+02 -3.956900531216854233e+01 -2.370361202571173820e+01 -3.956900531216854233e+01 -3.952823445923845469e+01 -1.966834323211832114e+01 -2.370361202571173820e+01 -1.966834323211832114e+01 -4.370244934617690546e+01
-3.280183076904178563e+01 -5.862584335569727578e+00 -1.685164634070893896e+01 -5.862584335569727578e+00 1.974944183195483927e+00 5.186194400084206535e+01 -1.685164634070893896e+01 5.186194400084206535e+01 -5.519067822350758945e+01
-6.618945465507124482e+01 -1.482098773832190375e+01 -4.844250493450964257e+01 -1.482098773832190375e+01 -1.265899388762707076e+02 1.138711627938606874e+01 -4.844250493450964257e+01 1.138711627938606874e+01 -1.246391918215747836e+02
-5.703954997047394926e+01 1.925471041996178467e+00 -3.763244226738480691e+00 1.925471041996178467e+00 -1.939484080439564764e+02 -9.338995915630297517e+00 -3.763244226738480691e+00 -9.338995915630297517e+00 -1.138974882875448458e+02
-5.295861180372611443e+01 1.552215545489061377e+00 1.208186532631404297e+01 1.552215545489061377e+00 -5.259799321107865921e+01 1.741508704201254076e+01 1.208186532631404297e+01 1.741508704201254076e+01 -8.716080733850606066e+01
4.343312623549182661e+01 4.896044321749549511e+00 2.653942293800187713e+01 4.896044321749549511e+00 -8.107021205315217571e+01 1.551598527038761333e+01 2.653942293800187713e+01 1.551598527038761333e+01 -6.403110856995272115e+01
-4.864685988196019650e+01 1.828972316229761574e+01 -2.050666553310228579e+01 1.828972316229761574e+01 -8.566833402150518850e+01 7.075985219210966193e+01 -2.050666553310228579e+01 7.075985219210966193e+01 -7.432687155141027802e+01
-1.105469361966336663e+02 -1.261863834839682141e+01 1.438207025199720768e+01 -1.261863834839682141e+01 -4.393207428982553608e+01 -2.214614351398176240e+01 1.438207025199720768e+01 -2.214614351398176240e+01 -7.705530094397069263e+01
-9.972158599266256829e+01 -3.288938212615744039e+00 -8.253987585606150645e+00 -3.288938212615744039e+00 -4.036535397375546097e+01 -1.982118706729607283e+01 -8.253987585606150645e+00 -1.982118706729607283e+01 -7.601543061845832483e+01
-8.760167872578966808e+01 -1.855240892890831716e+01 -1.699675201265163338e+01 -1.855240892890831716e+01 -5.291077534693410200e+01 4.538612453964544713e+00 -1.699675201265163338e+01 4.538612453964544713e+00 -3.829848388907073087e+01
-7.799569400250776141e+01 1.811024450698056754e+01 -7.090384634373831929e-01 1.811024450698056754e+01 -5.494565009938740019e+01 -1.676481907457998588e+01 -7.090384634373831929e-01 -1.676481907457998588e+01 -8.495826798029081317e+01
-5.604338611645282242e+01 -1.728991361347655342e+01 -1.293302400483061909e+01 -1.728991361347655342e+01 -1.331709032661975129e+02 9.109141264835233898e+00 -1.293302400483061909e+01 9.109141264835233898e+00 -1.088174782863718377e+02
-1.180648725241072157e+02 -3.934923739081320981e+00 -2.986962043139134160e+00 -3.934923739081320981e+00 -6.431168216368192248e+01 2.123609422818490344e+01 -2.986962043139134160e+00 2.123609422818490344e+01 -4.469423533377404567e+01
-1.001348887291837464e+01 -3.515175016403348174e+00 1.684109788023734211e+01 -3.515175016403348174e+00 -1.098917129916211053e+02 -1.518701958479009129e+01 1.684109788023734211e+01 -1.518701958479009129e+01 -4.510955181141128634e+01
-9.834821494472335246e+01 -1.766967984632430211e+00 4.112724894021594579e+00 -1.766967984632430211e+00 -1.167503554596971895e+02 8.218671506209368260e+00 4.112724894021594579e+00 8.218671506209368260e+00 -1.763174293042196723e+02
-1.537188536415574731e+02 1.617597310676162792e+01 2.976225114785389536e+01 1.617597310676162792e+01 -8.898564708256826350e+01 1.031204112086756997e+00 2.976225114785389536e+01 1.031204112086756997e+00 -1.017682844423409989e+02
-3.305909578866571508e+01 2.610243194330852035e+01 9.749204713396673938e+00 2.610243194330852035e+01 -5.590728201002463038e+01 1.474162584673889143e+01 9.749204713396673938e+00 1.474162584673889143e+01 -7.825433264728442850e+01
-9.990885476324025660e+01 -1.402358595175222433e+00 1.072603547692857484e+00 -1.402358595175222433e+00 -9.538183476129226790e+01 -1.585831920616606538e+01 1.072603547692857484e+00 -1.585831920616606538e+01 -1.186529299036645142e+02
-9.639229730188991141e+01 2.020576751383040381e+00 9.069373700560058538e+00 2.020576751383040381e+00 -7.380336878305833181e+01 9.939590805432644061e+00 9.069373700560058538e+00 9.939590805432644061e+00 -1.235573385669476352e+02
-5.869917338826701325e+01 -7.201928061625901378e+00 1.816863961314419029e+01 -7.201928061625901378e+00 -2.447972595917634919e+01 9.938956278943197331e-01 1.816863961314419029e+01 9.938956278943197331e-01 -1.142748550999906314e+02
-1.551715560654502610e+02 -1.604339482768023473e+01 -2.475492071299414398e+00 -1.604339482768023473e+01 -8.653505312489349421e+01 1.418918193082147639e+01 -2.475492071299414398e+00 1.418918193082147639e+01 -1.347198122016425543e+02
-6.440729335675695211e+01 1.867859704365733720e+01 -6.621217457619108515e+00 1.867859704365733720e+01 -3.633121252216729857e+01 -2.319956800746009051e+01 -6.621217457619108515e+00 -2.319956800746009051e+01 -3.452088470633864148e+01
-8.757394868265399168e+01 -1.383732932035841046e+01 -2.750609396261577189e+00 -1.383732932035841046e+01 -9.622315142791326537e+01 -1.060678003113274315e+01 -2.750609396261577189e+00 -1.060678003113274315e+01 -6.223536651809634890e+01
-8.818153670960757040e+01 7.415787921546983519e-01 -2.040206094040228635e+01 7.415787921546983519e-01 -9.292342100406210648e+01 -2.011962905759199671e+01 -2.040206094040228635e+01 -2.011962905759199671e+01 -2.754410087493704395e+01
-3.944273623880257418e+01 -1.614610833407456170e+01 -2.081887985691702170e+01 -1.614610833407456170e+01 -7.306822703946225772e+01 -9.869067717869937084e+00 -2.081887985691702170e+01 -9.869067717869937084e+00 -6.737587197555338037e+01
-9.165718374863774898e+01 3.463755252274281560e+01 1.294498809825879349e+01 3.463755252274281560e+01 -8.513888732856075592e+01 -1.626776874350524338e+01 1.294498809825879349e+01 -1.626776874350524338e+01 -8.549952820876946191e+01
-4.502550863134417369e+01 1.420113943566969361e+01 -2.134713671307323324e+01 1.420113943566969361e+01 -3.147258811069282203e+01 -2.921969735861359396e+01 -2.134713671307323324e+01 -2.921969735861359396e+01 -3.219677945085144444e+01
-9.564430929325681063e+01 2.854729381213093609e-01 1.911730035078057455e+01 2.854729381213093609e-01 -6.786170183802097711e+01 2.874192511567063235e+01 1.911730035078057455e+01 2.874192511567063235e+01 -2.385712158064870891e+01
-5.998681653474955766e+01 1.062574976758742729e+01 1.817833763222957089e+01 1.062574976758742729e+01 -1.464604212648542614e+02 -9.394497312035113623e+00 1.817833763222957089e+01 -9.394497312035113623e+00 -1.044491221337003992e+02
-1.117079590997680469e+02 -1.286125242883751740e+00 1.151911141681606132e+01 -1.286125242883751740e+00 -6.487182499764305987e+01 -9.409972474927030817e+00 1.151911141681606132e+01 -9.409972474927030817e+00 -7.842134148852338171e+01
-1.644239770851190201e+02 2.970048972889695094e+01 2.411075254375247567e+01 2.970048972889695094e+01 -7.645939226321490700e+00 2.800174226307730763e+01 2.411075254375247567e+01 2.800174226307730763e+01 -6.447266160261641232e+01
-1.035154946896109323e+02 -3.585180060768138333e+01 1.957349748960576452e+00 -3.585180060768138333e+01 -7.026724572627134080e+01 3.003661472687579703e+01 1.957349748960576452e+00 3.003661472687579703e+01 -1.297383551389177114e+02
-1.266207337856156698e+02 3.863914263962259099e+01 9.531789940632091174e+00 3.863914263962259099e+01 -9.869391750451886480e+01 -3.027368691002608614e+01 9.531789940632091174e+00 -3.027368691002608614e+01 -7.793141460836321244e+01
-7.847902098122645498e+01 3.363786395193820944e+00 1.930485863772402411e+01 3.363786395193820944e+00 -1.321203096719227403e+02 -1.537701754246796604e+01 1.930485863772402411e+01 -1.537701754246796604e+01 -1.241940291203725764e+02
-1.011153290228642447e+02 4.406731092103233038e+01 -3.352193736378013966e+01 4.406731092103233038e+01 -5.532799352270724569e+01 4.382487807612242214e+00 -3.352193736378013966e+01 4.382487807612242214e+00 -1.038760762751326041e+02
-6.359421035468979966e+01 4.633652383847108780e+01 4.205192943451126553e+01 4.633652383847108780e+01 -3.806361198913050004e+01 -3.586812865025628128e+01 4.205192943451126553e+01 -3.586812865025628128e+01 -3.457537597985493960e+01
-8.781946550573465515e+01 -2.598461077796505592e+01 7.724521573395324303e-01 -2.598461077796505592e+01 -6.356071378670792882e+01 -2.218846803423571856e+01 7.724521573395324303e-01 -2.218846803423571856e+01 -1.452735948989840153e+02
-9.555328803331208576e+01 3.461207168771833209e-01 -1.764227593033515262e+01 3.461207168771833209e-01 -8.819633292453050899e+01 -2.008302697786529833e+01 -1.764227593033515262e+01 -2.008302697786529833e+01 -5.582567644945900298e+01
-1.068992523941077906e+02 -4.618624015888211432e+01 1.506618867775504533e+01 -4.618624015888211432e+01 -1.016997937919439039e+02 -1.118818351800337219e+01 1.506618867775504533e+01 -1.118818351800337219e+01 -1.218781032680845016e+02
-1.218164111497815583e+02 3.467769456014766405e+01 -8.852776472642327477e+00 3.467769456014766405e+01 -8.335982305022525907e+01 1.928264003976948615e+01 -8.852776472642327477e+00 1.928264003976948615e+01 -1.115072616684381046e+02
-2.281123824886818241e+01 -1.369040508822776481e+01 -1.496127245515637050e+01 -1.369040508822776481e+01 -4.982855867292219898e+01 3.999813986128297927e+01 -1.496127245515637050e+01 3.999813986128297927e+01 -2.714490982692210252e+01
-4.559141949298500407e+01 2.334642326865138884e+01 1.073780641814930270e+01 2.334642326865138884e+01 -4.157694542210000321e+01 -5.716597230243177563e+00 1.073780641814930270e+01 -5.716597230243177563e+00 -6.941603702614999349e+01
-1.749272157949901896e+01 4.479285320169459794e+00 -2.402456511320831467e+01 4.479285320169459794e+00 -4.306614276139860920e+01 2.456659666179472978e+01 -2.402456511320831467e+01 2.456659666179472978e+01 -3.204308707784709043e+01
-9.247789704065300498e+01 1.450414551504109006e+01 -1.055014616515509651e+01 1.450414551504109006e+01 -6.150419459898154173e+01 8.667004423472528529e+00 -1.055014616515509651e+01 8.667004423472528529e+00 -5.649909928977930917e+01
-9.124829633869727274e+01 4.196547111673265107e+01 1.897298964949699851e+01 4.196547111673265107e+01 -4.008131720167975232e+01 3.146599484412790204e+01 1.897298964949699851e+01 3.146599484412790204e+01 -9.679512231925626509e+01
-9.378322879483997099e+01 1.539152271269480821e+01 -7.502167901749841938e+00 1.539152271269480821e+01 -4.747426150606860773e+01 -2.293542660214721973e+00 -7.502167901749841938e+00 -2.293542660214721973e+00 -7.560471135317661151e+01
2.268539313485570830e+01 -1.048252765462128533e+00 2.129504133065602822e+00 -1.048252765462128533e+00 -4.041526017905562185e+01 4.992578892411676605e+01 2.129504133065602822e+00 4.992578892411676605e+01 6.715568629014298629e+00
-5.369327294527821692e+01 5.194497854288727900e+00 -2.225263560483729464e+01 5.194497854288727900e+00 -1.475072799189611601e+02 1.433096117574587325e+01 -2.225263560483729464e+01 1.433096117574587325e+01 -9.009879189276034595e+01
-1.054988928270349504e+02 3.304890530486712663e+01 4.319264801126328024e+01 3.304890530486712663e+01 -1.227290576593945133e+02 8.001420174079642678e+00 4.319264801126328024e+01 8.001420174079642678e+00 -5.703928647789295781e+01
-3.435068382226209138e+01 -1.310466261365417395e+01 7.909139311314805632e+00 -1.310466261365417395e+01 -9.636702483521580120e+01 5.120981342579553797e+01 7.909139311314805632e+00 5.120981342579553797e+01 -4.182413915758959888e+01
-9.746173569520911428e+01 -1.131048918476077247e+01 -1.285631923017197487e+01 -1.131048918476077247e+01 -7.164645567563246686e+01 -3.266604357071771858e+01 -1.285631923017197487e+01 -3.266604357071771858e+01 -8.000451063988317912e+01
-3.198977800250432679e+01 3.402191659807606783e+01 -2.004559702136524635e+01 3.402191659807606783e+01 -9.011050873869662325e+01 1.645531855373770824e+01 -2.004559702136524635e+01 1.645531855373770824e+01 -8.506328276764877216e+01
-8.417980726819628501e+01 -1.082151264164727067e+01 1.543300077380630064e+01 -1.082151264164727067e+01 -9.292302111354575800e+01 -6.440100313734854254e+00 1.543300077380630064e+01 -6.440100313734854254e+00 -1.497025121802666945e+02
-1.483483411464140715e+02 1.770809163408185327e+01 -2.107677407316453611e+01 1.770809163408185327e+01 -5.595436725214365481e+01 2.654574036080926902e+00 -2.107677407316453611e+01 2.654574036080926902e+00 -7.591469139162126112e+01
-8.849274263954912101e+01 1.260543405633618796e+01 1.968682559624976491e+01 1.260543405633618796e+01 -7.064258473722533438e+01 1.429678410724363469e-01 1.968682559624976491e+01 1.429678410724363469e-01 -7.263141430590776793e+01
-4.090365131690195000e+01 -1.699497142894003332e+01 -3.098295676287382250e+01 -1.699497142894003332e+01 -8.588241010566337152e+00 -2.991211940258034119e+01 -3.098295676287382250e+01 -2.991211940258034119e+01 -5.847560890454899862e+01
-9.862616969473317852e+01 2.770957596564837289e+01 -7.383711151815769647e+00 2.770957596564837289e+01 -9.882124387976087121e+01 4.495727226261811538e+00 -7.383711151815769647e+00 4.495727226261811538e+00 -1.048682380524928277e+02
-1.187240385991048441e+02 4.371389242467254022e+00 7.858074832465689497e+00 4.371389242467254022e+00 -1.004496375857144557e+02 -7.759349106572972055e+00 7.858074832465689497e+00 -7.759349106572972055e+00 -6.980133896822259487e+01