1.524600000000000044e+01 0.000000000000000000e+00 0.000000000000000000e+00 0.000000000000000000e+00 1.524600000000000044e+01 0.000000000000000000e+00 0.000000000000000000e+00 0.000000000000000000e+00 1.524600000000000044e+01
1.514600000000000080e+01 0.000000000000000000e+00 0.000000000000000000e+00 0.000000000000000000e+00 1.514600000000000080e+01 0.000000000000000000e+00 0.000000000000000000e+00 0.000000000000000000e+00 1.514600000000000080e+01
1.544800000000000040e+01 0.000000000000000000e+00 0.000000000000000000e+00 0.000000000000000000e+00 1.544800000000000040e+01 0.000000000000000000e+00 0.000000000000000000e+00 0.000000000000000000e+00 1.544800000000000040e+01
1.553500000000000014e+01 0.000000000000000000e+00 0.000000000000000000e+00 0.000000000000000000e+00 1.553500000000000014e+01 0.000000000000000000e+00 0.000000000000000000e+00 0.000000000000000000e+00 1.553500000000000014e+01
1.525500000000000078e+01 0.000000000000000000e+00 0.000000000000000000e+00 0.000000000000000000e+00 1.525500000000000078e+01 0.000000000000000000e+00 0.000000000000000000e+00 0.000000000000000000e+00 1.525500000000000078e+01
1.536400000000000077e+01 0.000000000000000000e+00 0.000000000000000000e+00 0.000000000000000000e+00 1.536400000000000077e+01 0.000000000000000000e+00 0.000000000000000000e+00 0.000000000000000000e+00 1.536400000000000077e+01
1.524600000000000044e+01 0.000000000000000000e+00 0.000000000000000000e+00 0.000000000000000000e+00 1.524600000000000044e+01 0.000000000000000000e+00 0.000000000000000000e+00 0.000000000000000000e+00 1.524600000000000044e+01
1.533000000000000007e+01 0.000000000000000000e+00 0.000000000000000000e+00 0.000000000000000000e+00 1.533000000000000007e+01 0.000000000000000000e+00 0.000000000000000000e+00 0.000000000000000000e+00 1.533000000000000007e+01
1.546799999999999997e+01 0.000000000000000000e+00 0.000000000000000000e+00 0.000000000000000000e+00 1.546799999999999997e+01 0.000000000000000000e+00 0.000000000000000000e+00 0.000000000000000000e+00 1.546799999999999997e+01
1.538100000000000023e+01 0.000000000000000000e+00 0.000000000000000000e+00 0.000000000000000000e+00 1.538100000000000023e+01 0.000000000000000000e+00 0.000000000000000000e+00 0.000000000000000000e+00 1.538100000000000023e+01
1.513700000000000045e+01 0.000000000000000000e+00 0.000000000000000000e+00 0.000000000000000000e+00 1.513700000000000045e+01 0.000000000000000000e+00 0.000000000000000000e+00 0.000000000000000000e+00 1.513700000000000045e+01
1.509500000000000064e+01 0.000000000000000000e+00 0.000000000000000000e+00 0.000000000000000000e+00 1.509500000000000064e+01 0.000000000000000000e+00 0.000000000000000000e+00 0.000000000000000000e+00 1.509500000000000064e+01
1.532099999999999973e+01 0.000000000000000000e+00 0.000000000000000000e+00 0.000000000000000000e+00 1.532099999999999973e+01 0.000000000000000000e+00 0.000000000000000000e+00 0.000000000000000000e+00 1.532099999999999973e+01
1.516799999999999926e+01 0.000000000000000000e+00 0.000000000000000000e+00 0.000000000000000000e+00 1.516799999999999926e+01 0.000000000000000000e+00 0.000000000000000000e+00 0.000000000000000000e+00 1.516799999999999926e+01
1.566499999999999915e+01 0.000000000000000000e+00 0.000000000000000000e+00 0.000000000000000000e+00 1.566499999999999915e+01 0.000000000000000000e+00 0.000000000000000000e+00 0.000000000000000000e+00 1.566499999999999915e+01
1.534299999999999997e+01 0.000000000000000000e+00 0.000000000000000000e+00 0.000000000000000000e+00 1.534299999999999997e+01 0.000000000000000000e+00 0.000000000000000000e+00 0.000000000000000000e+00 1.534299999999999997e+01
1.531199999999999939e+01 0.000000000000000000e+00 0.000000000000000000e+00 0.000000000000000000e+00 1.531199999999999939e+01 0.000000000000000000e+00 0.000000000000000000e+00 0.000000000000000000e+00 1.531199999999999939e+01
1.532499999999999929e+01 0.000000000000000000e+00 0.000000000000000000e+00 0.000000000000000000e+00 1.532499999999999929e+01 0.000000000000000000e+00 0.000000000000000000e+00 0.000000000000000000e+00 1.532499999999999929e+01
1.513499999999999979e+01 0.000000000000000000e+00 0.000000000000000000e+00 0.000000000000000000e+00 1.513499999999999979e+01 0.000000000000000000e+00 0.000000000000000000e+00 0.000000000000000000e+00 1.513499999999999979e+01
1.533799999999999919e+01 0.000000000000000000e+00 0.000000000000000000e+00 0.000000000000000000e+00 1.533799999999999919e+01 0.000000000000000000e+00 0.000000000000000000e+00 0.000000000000000000e+00 1.533799999999999919e+01
1.509999999999999964e+01 0.000000000000000000e+00 0.000000000000000000e+00 0.000000000000000000e+00 1.509999999999999964e+01 0.000000000000000000e+00 0.000000000000000000e+00 0.000000000000000000e+00 1.509999999999999964e+01
1.538199999999999967e+01 0.000000000000000000e+00 0.000000000000000000e+00 0.000000000000000000e+00 1.538199999999999967e+01 0.000000000000000000e+00 0.000000000000000000e+00 0.000000000000000000e+00 1.538199999999999967e+01
1.514000000000000057e+01 0.000000000000000000e+00 0.000000000000000000e+00 0.000000000000000000e+00 1.514000000000000057e+01 0.000000000000000000e+00 0.000000000000000000e+00 0.000000000000000000e+00 1.514000000000000057e+01
1.534299999999999997e+01 0.000000000000000000e+00 0.000000000000000000e+00 0.000000000000000000e+00 1.534299999999999997e+01 0.000000000000000000e+00 0.000000000000000000e+00 0.000000000000000000e+00 1.534299999999999997e+01
1.530000000000000071e+01 0.000000000000000000e+00 0.000000000000000000e+00 0.000000000000000000e+00 1.530000000000000071e+01 0.000000000000000000e+00 0.000000000000000000e+00 0.000000000000000000e+00 1.530000000000000071e+01
1.502299999999999969e+01 0.000000000000000000e+00 0.000000000000000000e+00 0.000000000000000000e+00 1.502299999999999969e+01 0.000000000000000000e+00 0.000000000000000000e+00 0.000000000000000000e+00 1.502299999999999969e+01
1.495800000000000018e+01 0.000000000000000000e+00 0.000000000000000000e+00 0.000000000000000000e+00 1.495800000000000018e+01 0.000000000000000000e+00 0.000000000000000000e+00 0.000000000000000000e+00 1.495800000000000018e+01
1.522600000000000087e+01 0.000000000000000000e+00 0.000000000000000000e+00 0.000000000000000000e+00 1.522600000000000087e+01 0.000000000000000000e+00 0.000000000000000000e+00 0.000000000000000000e+00 1.522600000000000087e+01
1.521400000000000041e+01 0.000000000000000000e+00 0.000000000000000000e+00 0.000000000000000000e+00 1.521400000000000041e+01 0.000000000000000000e+00 0.000000000000000000e+00 0.000000000000000000e+00 1.521400000000000041e+01
1.531099999999999994e+01 0.000000000000000000e+00 0.000000000000000000e+00 0.000000000000000000e+00 1.531099999999999994e+01 0.000000000000000000e+00 0.000000000000000000e+00 0.000000000000000000e+00 1.531099999999999994e+01
1.515499999999999936e+01 0.000000000000000000e+00 0.000000000000000000e+00 0.000000000000000000e+00 1.515499999999999936e+01 0.000000000000000000e+00 0.000000000000000000e+00 0.000000000000000000e+00 1.515499999999999936e+01
1.516900000000000048e+01 0.000000000000000000e+00 0.000000000000000000e+00 0.000000000000000000e+00 1.516900000000000048e+01 0.000000000000000000e+00 0.000000000000000000e+00 0.000000000000000000e+00 1.516900000000000048e+01
1.545800000000000018e+01 0.000000000000000000e+00 0.000000000000000000e+00 0.000000000000000000e+00 1.545800000000000018e+01 0.000000000000000000e+00 0.000000000000000000e+00 0.000000000000000000e+00 1.545800000000000018e+01
1.515000000000000036e+01 0.000000000000000000e+00 0.000000000000000000e+00 0.000000000000000000e+00 1.515000000000000036e+01 0.000000000000000000e+00 0.000000000000000000e+00 0.000000000000000000e+00 1.515000000000000036e+01
1.501600000000000001e+01 0.000000000000000000e+00 0.000000000000000000e+00 0.000000000000000000e+00 1.501600000000000001e+01 0.000000000000000000e+00 0.000000000000000000e+00 0.000000000000000000e+00 1.501600000000000001e+01
1.515900000000000070e+01 0.000000000000000000e+00 0.000000000000000000e+00 0.000000000000000000e+00 1.515900000000000070e+01 0.000000000000000000e+00 0.000000000000000000e+00 0.000000000000000000e+00 1.515900000000000070e+01
1.541999999999999993e+01 0.000000000000000000e+00 0.000000000000000000e+00 0.000000000000000000e+00 1.541999999999999993e+01 0.000000000000000000e+00 0.000000000000000000e+00 0.000000000000000000e+00 1.541999999999999993e+01
1.527500000000000036e+01 0.000000000000000000e+00 0.000000000000000000e+00 0.000000000000000000e+00 1.527500000000000036e+01 0.000000000000000000e+00 0.000000000000000000e+00 0.000000000000000000e+00 1.527500000000000036e+01
1.547799999999999976e+01 0.000000000000000000e+00 0.000000000000000000e+00 0.000000000000000000e+00 1.547799999999999976e+01 0.000000000000000000e+00 0.000000000000000000e+00 0.000000000000000000e+00 1.547799999999999976e+01
1.544599999999999973e+01 0.000000000000000000e+00 0.000000000000000000e+00 0.000000000000000000e+00 1.544599999999999973e+01 0.000000000000000000e+00 0.000000000000000000e+00 0.000000000000000000e+00 1.544599999999999973e+01
1.534800000000000075e+01 0.000000000000000000e+00 0.000000000000000000e+00 0.000000000000000000e+00 1.534800000000000075e+01 0.000000000000000000e+00 0.000000000000000000e+00 0.000000000000000000e+00 1.534800000000000075e+01
1.516600000000000037e+01 0.000000000000000000e+00 0.000000000000000000e+00 0.000000000000000000e+00 1.516600000000000037e+01 0.000000000000000000e+00 0.000000000000000000e+00 0.000000000000000000e+00 1.516600000000000037e+01
1.548199999999999932e+01 0.000000000000000000e+00 0.000000000000000000e+00 0.000000000000000000e+00 1.548199999999999932e+01 0.000000000000000000e+00 0.000000000000000000e+00 0.000000000000000000e+00 1.548199999999999932e+01
1.565399999999999991e+01 0.000000000000000000e+00 0.000000000000000000e+00 0.000000000000000000e+00 1.565399999999999991e+01 0.000000000000000000e+00 0.000000000000000000e+00 0.000000000000000000e+00 1.565399999999999991e+01
1.510299999999999976e+01 0.000000000000000000e+00 0.000000000000000000e+00 0.000000000000000000e+00 1.510299999999999976e+01 0.000000000000000000e+00 0.000000000000000000e+00 0.000000000000000000e+00 1.510299999999999976e+01
1.525799999999999912e+01 0.000000000000000000e+00 0.000000000000000000e+00 0.000000000000000000e+00 1.525799999999999912e+01 0.000000000000000000e+00 0.000000000000000000e+00 0.000000000000000000e+00 1.525799999999999912e+01
1.532199999999999918e+01 0.000000000000000000e+00 0.000000000000000000e+00 0.000000000000000000e+00 1.532199999999999918e+01 0.000000000000000000e+00 0.000000000000000000e+00 0.000000000000000000e+00 1.532199999999999918e+01
1.544100000000000072e+01 0.000000000000000000e+00 0.000000000000000000e+00 0.000000000000000000e+00 1.544100000000000072e+01 0.000000000000000000e+00 0.000000000000000000e+00 0.000000000000000000e+00 1.544100000000000072e+01
1.533000000000000007e+01 0.000000000000000000e+00 0.000000000000000000e+00 0.000000000000000000e+00 1.533000000000000007e+01 0.000000000000000000e+00 0.000000000000000000e+00 0.000000000000000000e+00 1.533000000000000007e+01
1.544599999999999973e+01 0.000000000000000000e+00 0.000000000000000000e+00 0.000000000000000000e+00 1.544599999999999973e+01 0.000000000000000000e+00 0.000000000000000000e+00 0.000000000000000000e+00 1.544599999999999973e+01
1.528200000000000003e+01 0.000000000000000000e+00 0.000000000000000000e+00 0.000000000000000000e+00 1.528200000000000003e+01 0.000000000000000000e+00 0.000000000000000000e+00 0.000000000000000000e+00 1.528200000000000003e+01
1.510599999999999987e+01 0.000000000000000000e+00 0.000000000000000000e+00 0.000000000000000000e+00 1.510599999999999987e+01 0.000000000000000000e+00 0.000000000000000000e+00 0.000000000000000000e+00 1.510599999999999987e+01
1.555599999999999916e+01 0.000000000000000000e+00 0.000000000000000000e+00 0.000000000000000000e+00 1.555599999999999916e+01 0.000000000000000000e+00 0.000000000000000000e+00 0.000000000000000000e+00 1.555599999999999916e+01
1.547499999999999964e+01 0.000000000000000000e+00 0.000000000000000000e+00 0.000000000000000000e+00 1.547499999999999964e+01 0.000000000000000000e+00 0.000000000000000000e+00 0.000000000000000000e+00 1.547499999999999964e+01
1.546700000000000053e+01 0.000000000000000000e+00 0.000000000000000000e+00 0.000000000000000000e+00 1.546700000000000053e+01 0.000000000000000000e+00 0.000000000000000000e+00 0.000000000000000000e+00 1.546700000000000053e+01
1.528299999999999947e+01 0.000000000000000000e+00 0.000000000000000000e+00 0.000000000000000000e+00 1.528299999999999947e+01 0.000000000000000000e+00 0.000000000000000000e+00 0.000000000000000000e+00 1.528299999999999947e+01
1.536200000000000010e+01 0.000000000000000000e+00 0.000000000000000000e+00 0.000000000000000000e+00 1.536200000000000010e+01 0.000000000000000000e+00 0.000000000000000000e+00 0.000000000000000000e+00 1.536200000000000010e+01
1.515700000000000003e+01 0.000000000000000000e+00 0.000000000000000000e+00 0.000000000000000000e+00 1.515700000000000003e+01 0.000000000000000000e+00 0.000000000000000000e+00 0.000000000000000000e+00 1.515700000000000003e+01
1.547700000000000031e+01 0.000000000000000000e+00 0.000000000000000000e+00 0.000000000000000000e+00 1.547700000000000031e+01 0.000000000000000000e+00 0.000000000000000000e+00 0.000000000000000000e+00 1.547700000000000031e+01
1.539300000000000068e+01 0.000000000000000000e+00 0.000000000000000000e+00 0.000000000000000000e+00 1.539300000000000068e+01 0.000000000000000000e+00 0.000000000000000000e+00 0.000000000000000000e+00 1.539300000000000068e+01
1.532900000000000063e+01 0.000000000000000000e+00 0.000000000000000000e+00 0.000000000000000000e+00 1.532900000000000063e+01 0.000000000000000000e+00 0.000000000000000000e+00 0.000000000000000000e+00 1.532900000000000063e+01
1.512400000000000055e+01 0.000000000000000000e+00 0.000000000000000000e+00 0.000000000000000000e+00 1.512400000000000055e+01 0.000000000000000000e+00 0.000000000000000000e+00 0.000000000000000000e+00 1.512400000000000055e+01
1.522300000000000075e+01 0.000000000000000000e+00 0.000000000000000000e+00 0.000000000000000000e+00 1.522300000000000075e+01 0.000000000000000000e+00 0.000000000000000000e+00 0.000000000000000000e+00 1.522300000000000075e+01
1.510200000000000031e+01 0.000000000000000000e+00 0.000000000000000000e+00 0.000000000000000000e+00 1.510200000000000031e+01 0.000000000000000000e+00 0.000000000000000000e+00 0.000000000000000000e+00 1.510200000000000031e+01
1.503999999999999915e+01 0.000000000000000000e+00 0.000000000000000000e+00 0.000000000000000000e+00 1.503999999999999915e+01 0.000000000000000000e+00 0.000000000000000000e+00 0.000000000000000000e+00 1.503999999999999915e+01
1.520299999999999940e+01 0.000000000000000000e+00 0.000000000000000000e+00 0.000000000000000000e+00 1.520299999999999940e+01 0.000000000000000000e+00 0.000000000000000000e+00 0.000000000000000000e+00 1.520299999999999940e+01
1.505000000000000071e+01 0.000000000000000000e+00 0.000000000000000000e+00 0.000000000000000000e+00 1.505000000000000071e+01 0.000000000000000000e+00 0.000000000000000000e+00 0.000000000000000000e+00 1.505000000000000071e+01
1.535999999999999943e+01 0.000000000000000000e+00 0.000000000000000000e+00 0.000000000000000000e+00 1.535999999999999943e+01 0.000000000000000000e+00 0.000000000000000000e+00 0.000000000000000000e+00 1.535999999999999943e+01
1.516900000000000048e+01 0.000000000000000000e+00 0.000000000000000000e+00 0.000000000000000000e+00 1.516900000000000048e+01 0.000000000000000000e+00 0.000000000000000000e+00 0.000000000000000000e+00 1.516900000000000048e+01
1.540700000000000003e+01 0.000000000000000000e+00 0.000000000000000000e+00 0.000000000000000000e+00 1.540700000000000003e+01 0.000000000000000000e+00 0.000000000000000000e+00 0.000000000000000000e+00 1.540700000000000003e+01
1.521299999999999919e+01 0.000000000000000000e+00 0.000000000000000000e+00 0.000000000000000000e+00 1.521299999999999919e+01 0.000000000000000000e+00 0.000000000000000000e+00 0.000000000000000000e+00 1.521299999999999919e+01
1.531600000000000072e+01 0.000000000000000000e+00 0.000000000000000000e+00 0.000000000000000000e+00 1.531600000000000072e+01 0.000000000000000000e+00 0.000000000000000000e+00 0.000000000000000000e+00 1.531600000000000072e+01
1.514700000000000024e+01 0.000000000000000000e+00 0.000000000000000000e+00 0.000000000000000000e+00 1.514700000000000024e+01 0.000000000000000000e+00 0.000000000000000000e+00 0.000000000000000000e+00 1.514700000000000024e+01
1.515099999999999980e+01 0.000000000000000000e+00 0.000000000000000000e+00 0.000000000000000000e+00 1.515099999999999980e+01 0.000000000000000000e+00 0.000000000000000000e+00 0.000000000000000000e+00 1.515099999999999980e+01
1.515499999999999936e+01 0.000000000000000000e+00 0.000000000000000000e+00 0.000000000000000000e+00 1.515499999999999936e+01 0.000000000000000000e+00 0.000000000000000000e+00 0.000000000000000000e+00 1.515499999999999936e+01
1.508300000000000018e+01 0.000000000000000000e+00 0.000000000000000000e+00 0.000000000000000000e+00 1.508300000000000018e+01 0.000000000000000000e+00 0.000000000000000000e+00 0.000000000000000000e+00 1.508300000000000018e+01
1.533200000000000074e+01 0.000000000000000000e+00 0.000000000000000000e+00 0.000000000000000000e+00 1.533200000000000074e+01 0.000000000000000000e+00 0.000000000000000000e+00 0.000000000000000000e+00 1.533200000000000074e+01
1.541799999999999926e+01 0.000000000000000000e+00 0.000000000000000000e+00 0.000000000000000000e+00 1.541799999999999926e+01 0.000000000000000000e+00 0.000000000000000000e+00 0.000000000000000000e+00 1.541799999999999926e+01
1.536800000000000033e+01 0.000000000000000000e+00 0.000000000000000000e+00 0.000000000000000000e+00 1.536800000000000033e+01 0.000000000000000000e+00 0.000000000000000000e+00 0.000000000000000000e+00 1.536800000000000033e+01
1.537199999999999989e+01 0.000000000000000000e+00 0.000000000000000000e+00 0.000000000000000000e+00 1.537199999999999989e+01 0.000000000000000000e+00 0.000000000000000000e+00 0.000000000000000000e+00 1.537199999999999989e+01
1.531099999999999994e+01 0.000000000000000000e+00 0.000000000000000000e+00 0.000000000000000000e+00 1.531099999999999994e+01 0.000000000000000000e+00 0.000000000000000000e+00 0.000000000000000000e+00 1.531099999999999994e+01
1.560500000000000043e+01 0.000000000000000000e+00 0.000000000000000000e+00 0.000000000000000000e+00 1.560500000000000043e+01 0.000000000000000000e+00 0.000000000000000000e+00 0.000000000000000000e+00 1.560500000000000043e+01
1.542300000000000004e+01 0.000000000000000000e+00 0.000000000000000000e+00 0.000000000000000000e+00 1.542300000000000004e+01 0.000000000000000000e+00 0.000000000000000000e+00 0.000000000000000000e+00 1.542300000000000004e+01
1.513799999999999990e+01 0.000000000000000000e+00 0.000000000000000000e+00 0.000000000000000000e+00 1.513799999999999990e+01 0.000000000000000000e+00 0.000000000000000000e+00 0.000000000000000000e+00 1.513799999999999990e+01
1.526399999999999935e+01 0.000000000000000000e+00 0.000000000000000000e+00 0.000000000000000000e+00 1.526399999999999935e+01 0.000000000000000000e+00 0.000000000000000000e+00 0.000000000000000000e+00 1.526399999999999935e+01
1.524300000000000033e+01 0.000000000000000000e+00 0.000000000000000000e+00 0.000000000000000000e+00 1.524300000000000033e+01 0.000000000000000000e+00 0.000000000000000000e+00 0.000000000000000000e+00 1.524300000000000033e+01
1.539000000000000057e+01 0.000000000000000000e+00 0.000000000000000000e+00 0.000000000000000000e+00 1.539000000000000057e+01 0.000000000000000000e+00 0.000000000000000000e+00 0.000000000000000000e+00 1.539000000000000057e+01
1.514499999999999957e+01 0.000000000000000000e+00 0.000000000000000000e+00 0.000000000000000000e+00 1.514499999999999957e+01 0.000000000000000000e+00 0.000000000000000000e+00 0.000000000000000000e+00 1.514499999999999957e+01
1.517200000000000060e+01 0.000000000000000000e+00 0.000000000000000000e+00 0.000000000000000000e+00 1.517200000000000060e+01 0.000000000000000000e+00 0.000000000000000000e+00 0.000000000000000000e+00 1.517200000000000060e+01
1.514300000000000068e+01 0.000000000000000000e+00 0.000000000000000000e+00 0.000000000000000000e+00 1.514300000000000068e+01 0.000000000000000000e+00 0.000000000000000000e+00 0.000000000000000000e+00 1.514300000000000068e+01
1.527299999999999969e+01 0.000000000000000000e+00 0.000000000000000000e+00 0.000000000000000000e+00 1.527299999999999969e+01 0.000000000000000000e+00 0.000000000000000000e+00 0.000000000000000000e+00 1.527299999999999969e+01
1.536899999999999977e+01 0.000000000000000000e+00 0.000000000000000000e+00 0.000000000000000000e+00 1.536899999999999977e+01 0.000000000000000000e+00 0.000000000000000000e+00 0.000000000000000000e+00 1.536899999999999977e+01
1.537700000000000067e+01 0.000000000000000000e+00 0.000000000000000000e+00 0.000000000000000000e+00 1.537700000000000067e+01 0.000000000000000000e+00 0.000000000000000000e+00 0.000000000000000000e+00 1.537700000000000067e+01
1.539799999999999969e+01 0.000000000000000000e+00 0.000000000000000000e+00 0.000000000000000000e+00 1.539799999999999969e+01 0.000000000000000000e+00 0.000000000000000000e+00 0.000000000000000000e+00 1.539799999999999969e+01
1.518200000000000038e+01 0.000000000000000000e+00 0.000000000000000000e+00 0.000000000000000000e+00 1.518200000000000038e+01 0.000000000000000000e+00 0.000000000000000000e+00 0.000000000000000000e+00 1.518200000000000038e+01
1.537100000000000044e+01 0.000000000000000000e+00 0.000000000000000000e+00 0.000000000000000000e+00 1.537100000000000044e+01 0.000000000000000000e+00 0.000000000000000000e+00 0.000000000000000000e+00 1.537100000000000044e+01
1.537800000000000011e+01 0.000000000000000000e+00 0.000000000000000000e+00 0.000000000000000000e+00 1.537800000000000011e+01 0.000000000000000000e+00 0.000000000000000000e+00 0.000000000000000000e+00 1.537800000000000011e+01
1.536500000000000021e+01 0.000000000000000000e+00 0.000000000000000000e+00 0.000000000000000000e+00 1.536500000000000021e+01 0.000000000000000000e+00 0.000000000000000000e+00 0.000000000000000000e+00 1.536500000000000021e+01
1.542699999999999960e+01 0.000000000000000000e+00 0.000000000000000000e+00 0.000000000000000000e+00 1.542699999999999960e+01 0.000000000000000000e+00 0.000000000000000000e+00 0.000000000000000000e+00 1.542699999999999960e+01
1.528800000000000026e+01 0.000000000000000000e+00 0.000000000000000000e+00 0.000000000000000000e+00 1.528800000000000026e+01 0.000000000000000000e+00 0.000000000000000000e+00 0.000000000000000000e+00 1.528800000000000026e+01
1.518099999999999916e+01 0.000000000000000000e+00 0.000000000000000000e+00 0.000000000000000000e+00 1.518099999999999916e+01 0.000000000000000000e+00 0.000000000000000000e+00 0.000000000000000000e+00 1.518099999999999916e+01
1.544599999999999973e+01 0.000000000000000000e+00 0.000000000000000000e+00 0.000000000000000000e+00 1.544599999999999973e+01 0.000000000000000000e+00 0.000000000000000000e+00 0.000000000000000000e+00 1.544599999999999973e+01
1.519800000000000040e+01 0.000000000000000000e+00 0.000000000000000000e+00 0.000000000000000000e+00 1.519800000000000040e+01 0.000000000000000000e+00 0.000000000000000000e+00 0.000000000000000000e+00 1.519800000000000040e+01
1.522600000000000087e+01 0.000000000000000000e+00 0.000000000000000000e+00 0.000000000000000000e+00 1.522600000000000087e+01 0.000000000000000000e+00 0.000000000000000000e+00 0.000000000000000000e+00 1.522600000000000087e+01
1.502399999999999913e+01 0.000000000000000000e+00 0.000000000000000000e+00 0.000000000000000000e+00 1.502399999999999913e+01 0.000000000000000000e+00 0.000000000000000000e+00 0.000000000000000000e+00 1.502399999999999913e+01
1.511500000000000021e+01 0.000000000000000000e+00 0.000000000000000000e+00 0.000000000000000000e+00 1.511500000000000021e+01 0.000000000000000000e+00 0.000000000000000000e+00 0.000000000000000000e+00 1.511500000000000021e+01
1.527200000000000024e+01 0.000000000000000000e+00 0.000000000000000000e+00 0.000000000000000000e+00 1.527200000000000024e+01 0.000000000000000000e+00 0.000000000000000000e+00 0.000000000000000000e+00 1.527200000000000024e+01
1.532600000000000051e+01 0.000000000000000000e+00 0.000000000000000000e+00 0.000000000000000000e+00 1.532600000000000051e+01 0.000000000000000000e+00 0.000000000000000000e+00 0.000000000000000000e+00 1.532600000000000051e+01
1.520700000000000074e+01 0.000000000000000000e+00 0.000000000000000000e+00 0.000000000000000000e+00 1.520700000000000074e+01 0.000000000000000000e+00 0.000000000000000000e+00 0.000000000000000000e+00 1.520700000000000074e+01
1.517399999999999949e+01 0.000000000000000000e+00 0.000000000000000000e+00 0.000000000000000000e+00 1.517399999999999949e+01 0.000000000000000000e+00 0.000000000000000000e+00 0.000000000000000000e+00 1.517399999999999949e+01
1.526999999999999957e+01 0.000000000000000000e+00 0.000000000000000000e+00 0.000000000000000000e+00 1.526999999999999957e+01 0.000000000000000000e+00 0.000000000000000000e+00 0.000000000000000000e+00 1.526999999999999957e+01
1.535599999999999987e+01 0.000000000000000000e+00 0.000000000000000000e+00 0.000000000000000000e+00 1.535599999999999987e+01 0.000000000000000000e+00 0.000000000000000000e+00 0.000000000000000000e+00 1.535599999999999987e+01
1.554100000000000037e+01 0.000000000000000000e+00 0.000000000000000000e+00 0.000000000000000000e+00 1.554100000000000037e+01 0.000000000000000000e+00 0.000000000000000000e+00 0.000000000000000000e+00 1.554100000000000037e+01
1.546000000000000085e+01 0.000000000000000000e+00 0.000000000000000000e+00 0.000000000000000000e+00 1.546000000000000085e+01 0.000000000000000000e+00 0.000000000000000000e+00 0.000000000000000000e+00 1.546000000000000085e+01
1.510999999999999943e+01 0.000000000000000000e+00 0.000000000000000000e+00 0.000000000000000000e+00 1.510999999999999943e+01 0.000000000000000000e+00 0.000000000000000000e+00 0.000000000000000000e+00 1.510999999999999943e+01
1.536899999999999977e+01 0.000000000000000000e+00 0.000000000000000000e+00 0.000000000000000000e+00 1.536899999999999977e+01 0.000000000000000000e+00 0.000000000000000000e+00 0.000000000000000000e+00 1.536899999999999977e+01
1.540799999999999947e+01 0.000000000000000000e+00 0.000000000000000000e+00 0.000000000000000000e+00 1.540799999999999947e+01 0.000000000000000000e+00 0.000000000000000000e+00 0.000000000000000000e+00 1.540799999999999947e+01
1.533999999999999986e+01 0.000000000000000000e+00 0.000000000000000000e+00 0.000000000000000000e+00 1.533999999999999986e+01 0.000000000000000000e+00 0.000000000000000000e+00 0.000000000000000000e+00 1.533999999999999986e+01
1.542699999999999960e+01 0.000000000000000000e+00 0.000000000000000000e+00 0.000000000000000000e+00 1.542699999999999960e+01 0.000000000000000000e+00 0.000000000000000000e+00 0.000000000000000000e+00 1.542699999999999960e+01
1.537800000000000011e+01 0.000000000000000000e+00 0.000000000000000000e+00 0.000000000000000000e+00 1.537800000000000011e+01 0.000000000000000000e+00 0.000000000000000000e+00 0.000000000000000000e+00 1.537800000000000011e+01
1.525200000000000067e+01 0.000000000000000000e+00 0.000000000000000000e+00 0.000000000000000000e+00 1.525200000000000067e+01 0.000000000000000000e+00 0.000000000000000000e+00 0.000000000000000000e+00 1.525200000000000067e+01
1.519599999999999973e+01 0.000000000000000000e+00 0.000000000000000000e+00 0.000000000000000000e+00 1.519599999999999973e+01 0.000000000000000000e+00 0.000000000000000000e+00 0.000000000000000000e+00 1.519599999999999973e+01
1.511299999999999955e+01 0.000000000000000000e+00 0.000000000000000000e+00 0.000000000000000000e+00 1.511299999999999955e+01 0.000000000000000000e+00 0.000000000000000000e+00 0.000000000000000000e+00 1.511299999999999955e+01
1.520500000000000007e+01 0.000000000000000000e+00 0.000000000000000000e+00 0.000000000000000000e+00 1.520500000000000007e+01 0.000000000000000000e+00 0.000000000000000000e+00 0.000000000000000000e+00 1.520500000000000007e+01
1.525799999999999912e+01 0.000000000000000000e+00 0.000000000000000000e+00 0.000000000000000000e+00 1.525799999999999912e+01 0.000000000000000000e+00 0.000000000000000000e+00 0.000000000000000000e+00 1.525799999999999912e+01
1.540499999999999936e+01 0.000000000000000000e+00 0.000000000000000000e+00 0.000000000000000000e+00 1.540499999999999936e+01 0.000000000000000000e+00 0.000000000000000000e+00 0.000000000000000000e+00 1.540499999999999936e+01
1.528700000000000081e+01 0.000000000000000000e+00 0.000000000000000000e+00 0.000000000000000000e+00 1.528700000000000081e+01 0.000000000000000000e+00 0.000000000000000000e+00 0.000000000000000000e+00 1.528700000000000081e+01
1.522300000000000075e+01 0.000000000000000000e+00 0.000000000000000000e+00 0.000000000000000000e+00 1.522300000000000075e+01 0.000000000000000000e+00 0.000000000000000000e+00 0.000000000000000000e+00 1.522300000000000075e+01
1.538000000000000078e+01 0.000000000000000000e+00 0.000000000000000000e+00 0.000000000000000000e+00 1.538000000000000078e+01 0.000000000000000000e+00 0.000000000000000000e+00 0.000000000000000000e+00 1.538000000000000078e+01
1.526500000000000057e+01 0.000000000000000000e+00 0.000000000000000000e+00 0.000000000000000000e+00 1.526500000000000057e+01 0.000000000000000000e+00 0.000000000000000000e+00 0.000000000000000000e+00 1.526500000000000057e+01
1.520899999999999963e+01 0.000000000000000000e+00 0.000000000000000000e+00 0.000000000000000000e+00 1.520899999999999963e+01 0.000000000000000000e+00 0.000000000000000000e+00 0.000000000000000000e+00 1.520899999999999963e+01
1.558099999999999952e+01 0.000000000000000000e+00 0.000000000000000000e+00 0.000000000000000000e+00 1.558099999999999952e+01 0.000000000000000000e+00 0.000000000000000000e+00 0.000000000000000000e+00 1.558099999999999952e+01
1.522300000000000075e+01 0.000000000000000000e+00 0.000000000000000000e+00 0.000000000000000000e+00 1.522300000000000075e+01 0.000000000000000000e+00 0.000000000000000000e+00 0.000000000000000000e+00 1.522300000000000075e+01