9.526498999999999384e+00 9.188309000000000282e+00 6.188519000000000325e+00 1.186062899999999942e+01 2.950469000000000008e+00 2.061869000000000174e+00 7.534429000000000265e+00 5.929719000000000406e+00 5.509089000000000347e+00 1.434722900000000045e+01 1.259732900000000022e+01 9.506429000000000684e+00 2.638319000000000081e+00 1.848019000000000078e+00 2.701239000000000168e+00 1.039912900000000029e+01 5.594248999999999583e+00 1.379372900000000080e+01 2.215148999999999813e+00 1.039682900000000032e+01 8.464890000000000470e-01 4.815738999999999770e+00 5.912778999999999563e+00 9.518639000000000294e+00 2.009148999999999852e+00 1.250692899999999952e+01 1.300262900000000066e+01 2.645699000000000023e+00 6.998490000000000544e-01 9.702329000000000647e+00 1.603888999999999898e+00 1.122502899999999926e+01 6.862229000000000134e+00 3.090428999999999871e+00 3.755428999999999906e+00 4.438809000000000005e+00 1.306802899999999923e+01 9.528729000000000227e+00 5.923059000000000296e+00 2.025898999999999894e+00 2.331338999999999828e+00 1.160212899999999969e+01 1.052562900000000035e+01 6.480089999999999462e-01 1.331122900000000087e+01 5.045958999999999861e+00 5.707099999999999673e-02 1.439142900000000047e+01 5.243959000000000259e+00 3.501148999999999845e+00 9.747329000000000576e+00 4.888789000000000051e+00 8.710568999999999562e+00 5.517489000000000310e+00 1.383492900000000070e+01 7.792068999999999690e+00 1.123362900000000053e+01 9.657028999999999641e+00 1.107372900000000016e+01 1.225032900000000069e+01 8.231678999999999746e+00 1.226682899999999954e+01 3.586219999999999963e-01 3.881918999999999897e+00 6.950428999999999746e+00 1.370052899999999951e+01 6.247459000000000096e+00 7.396899000000000335e+00 1.484612899999999946e+01 3.831439000000000039e+00 7.683348999999999762e+00 1.122892900000000083e+01 7.698190000000000310e-01 1.118032900000000041e+01 9.011018999999999224e+00 1.454282899999999934e+01 1.876150000000000040e-01 1.205022899999999986e+01 1.063989000000000074e+00 1.314862899999999968e+01 1.578229000000000104e+00 1.271252899999999997e+01 1.108832899999999988e+01 3.821689000000000114e+00 1.258082899999999960e+01 1.272412899999999958e+01 6.872558999999999862e+00 1.454562899999999992e+01 5.737618999999999581e+00 9.858629000000000531e+00 8.092729000000000283e+00 6.853489999999999860e-01 3.047388999999999903e+00 5.735688999999999815e+00 1.142592900000000000e+01 2.312028999999999890e+00 1.004562899999999992e+01 6.583559000000000161e+00 2.495499000000000134e+00 1.320892899999999948e+01 1.471732899999999944e+01 1.018452899999999950e+01 9.563059000000000864e+00 4.782678999999999903e+00 6.700369000000000241e+00 1.626268999999999965e+00 5.714808999999999806e+00 1.387612900000000060e+01 8.270968999999999127e+00 1.397142900000000054e+01 4.852288999999999852e+00 1.521152900000000052e+01 9.859928999999999277e+00 1.495192899999999980e+01 1.377742899999999970e+01 1.276832899999999960e+01 2.283568999999999960e+00 5.045138999999999818e+00 1.361602899999999927e+01 1.261889000000000038e+00 1.424292900000000017e+01 1.341458999999999957e+00 1.404752900000000082e+01 5.547998999999999903e+00 6.561199000000000225e+00 6.946119000000000376e+00 1.424522900000000014e+01 3.888609000000000204e+00 2.417628999999999806e+00 1.175192900000000051e+01 7.336579000000000406e+00 1.264982900000000043e+01 1.134642900000000054e+01 1.368629000000000095e+00 4.020499000000000045e+00 6.551959000000000088e+00 8.862609000000000847e+00 1.533069000000000015e+00 1.439282900000000076e+01 4.510558999999999763e+00 7.406158999999999715e+00 6.037809000000000204e+00 2.779098999999999986e+00 7.394548999999999594e+00 9.332088999999999857e+00 4.322419000000000011e+00 2.004709000000000074e+00 2.647279000000000160e+00 9.792128999999999195e+00 1.032362900000000039e+01 5.363268999999999842e+00 3.394038999999999806e+00 4.940998999999999697e+00 7.452619000000000327e+00 7.213109000000000215e+00 3.273458999999999897e+00 2.623889000000000138e+00 1.563579000000000052e+00 7.431448999999999749e+00 6.793699000000000154e+00 1.202132899999999971e+01 4.683519000000000432e+00 1.479762900000000059e+01 2.189989999999999992e-01 5.440008999999999872e+00 2.173420000000000074e-01 1.727889000000000008e+00 3.595188999999999968e+00 7.905889000000000166e+00 6.369208999999999676e+00 1.317812900000000020e+01 1.206882899999999914e+01 1.440719000000000083e+00 1.189150000000000068e-01 5.540888999999999953e+00 1.453532900000000083e+01 7.670359000000000371e+00 8.241908999999999708e+00 5.247728999999999644e+00 9.128489000000000075e+00 7.452748999999999846e+00 3.306569000000000091e+00 1.071462900000000040e+01 2.735508999999999968e+00 1.198118999999999934e+00 1.385092900000000071e+01 8.688148999999999234e+00 1.485682899999999940e+01 7.718190000000000328e-01 6.243668999999999691e+00 1.201782900000000076e+01 1.383922899999999956e+01 3.008729000000000209e+00 1.015392899999999976e+01 4.928158999999999956e+00 8.932479000000000724e+00 1.979408999999999974e+00 1.208362900000000018e+01 1.504842900000000050e+01 1.137252900000000011e+01 1.312502899999999961e+01 1.514982900000000043e+01 1.321282899999999927e+01 6.385449000000000375e+00 1.145998999999999990e+00 1.520432899999999954e+01 1.507292900000000024e+01 1.006032899999999941e+01 1.004492899999999977e+01 9.126428999999999903e+00 8.663588999999999984e+00 9.157149000000000427e+00 1.112892899999999941e+01 1.698169000000000040e+00 1.452182900000000032e+01 1.143892899999999990e+01 6.369418999999999720e+00 1.232702899999999957e+01 8.320368999999999460e+00 7.295258999999999716e+00 1.053369000000000000e+00 7.760529000000000011e+00 4.017718999999999596e+00 1.482030000000000014e-01 2.893158999999999814e+00 9.307059000000000637e+00 1.080872899999999959e+01 2.051339000000000024e+00 1.126592899999999986e+01 9.658329000000000164e+00 6.514489999999999448e-01 3.789499000000000173e+00 1.495630000000000015e-01 5.674959000000000309e+00 1.126492900000000041e+01 9.664329000000000391e+00 1.316902900000000010e+01 1.023382900000000006e+01 1.047182899999999961e+01 4.081019000000000396e+00 8.085528999999999300e+00 6.912088999999999928e+00 1.070952899999999985e+01 1.566569000000000100e+00 3.682538999999999785e+00 6.628249000000000279e+00 2.472338999999999842e+00 1.129062899999999914e+01 2.672969000000000150e+00 1.210502900000000004e+01 5.085979000000000028e+00 6.652809000000000417e+00 5.824108999999999980e+00 1.301812900000000006e+01 1.162072900000000075e+01 7.471599000000000323e+00 1.491122900000000051e+01 1.130762900000000037e+01 1.235032900000000033e+01 1.497402899999999981e+01 2.308049000000000017e+00 7.450918999999999848e+00 9.943490000000000384e-01 1.378642900000000004e+01 1.143892899999999990e+01 5.850760000000000405e-01 8.691668999999999201e+00 1.464812900000000084e+01 7.957508999999999943e+00 1.359858999999999929e+00 8.963929000000000258e+00 2.856690000000000063e-01 9.116429000000000116e+00 1.034802900000000037e+01 3.530228999999999839e+00 1.676050000000000040e-01 7.361619000000000135e+00 3.041298999999999975e+00 3.248279000000000138e+00 1.042142899999999983e+01 1.342892900000000012e+01 6.470549000000000106e+00 1.219462900000000083e+01 9.755390000000000450e-01 6.161169000000000118e+00 9.028769000000000489e+00 1.224442900000000023e+01 8.208539000000000030e+00 1.238152900000000045e+01 7.877589000000000397e+00 1.894889000000000046e+00 3.816249000000000002e+00 1.148692899999999995e+01 1.432352900000000062e+01 4.911858999999999753e+00 1.127912899999999929e+01 9.794228999999999630e+00 1.236032900000000012e+01 1.039172899999999977e+01 7.934159000000000184e+00 8.306390000000000162e-01 4.731249000000000038e+00 1.169962899999999983e+01 1.166932899999999940e+01 7.581749000000000294e+00 5.891658999999999757e+00 2.349920000000000064e-01 5.669228999999999630e+00 7.045989999999999753e-01 9.667329000000000505e+00 1.381742900000000063e+01 1.250962900000000033e+01 7.072389000000000259e+00 9.930628999999999706e+00 5.835938999999999766e+00 1.421442900000000087e+01 1.041962900000000047e+01 1.086712900000000026e+01 1.341292900000000010e+01 1.489522900000000050e+01 1.149102899999999927e+01 1.889178999999999942e+00 1.349212900000000026e+01 1.218892899999999990e+01 1.515442900000000037e+01 1.823929999999999996e-01 1.439182899999999954e+01 2.220019000000000187e+00 9.998729000000000866e+00 2.117668999999999802e+00 1.211782900000000041e+01 1.174082899999999974e+01 7.676988999999999841e+00 3.710309000000000079e+00 9.007438999999999751e+00 4.826998999999999818e+00 2.391148999999999969e+00 2.801108999999999849e+00 7.383899000000000434e+00 6.323178999999999661e+00 2.650799999999999823e-01 8.170318999999999221e+00 8.693168999999999258e+00 1.025442900000000002e+01 1.207392899999999969e+01 9.696929000000000798e+00 1.250132900000000014e+01 1.194442899999999952e+01 1.085572900000000018e+01 4.569278999999999868e+00 6.857878999999999614e+00 3.952529000000000181e+00 5.874629999999999574e-01 1.364972900000000067e+01 1.363282899999999920e+01 7.435919000000000167e+00 2.162669000000000175e+00 1.945678999999999936e+00 3.950988999999999862e+00 5.249969000000000108e+00 7.304229000000000305e+00 2.483658999999999839e+00 7.406309000000000253e+00 1.017062899999999992e+01 1.391069000000000111e+00 1.213602900000000062e+01 2.857658999999999949e+00 8.823349000000000331e+00 1.113452900000000056e+01 2.674558999999999909e+00 1.480732899999999930e+01 1.047862899999999975e+01 1.301209000000000060e+00 5.765499000000000152e+00 1.255162900000000015e+01 1.332772899999999971e+01 9.608819000000000443e+00 7.139478999999999687e+00 1.388079000000000063e+00 1.402212899999999962e+01 5.471470000000000500e-01 5.511608999999999980e+00 2.483769000000000116e+00 5.993539000000000172e+00 9.240328999999999127e+00 9.972229000000000454e+00 3.124099000000000181e+00 1.099832900000000002e+01 8.395478999999999914e+00 1.266892900000000033e+01 7.954278999999999655e+00 1.743730000000000002e-01 1.019342900000000007e+01 1.003202899999999964e+01 1.031132900000000063e+01 9.285590000000000233e-01 8.764428999999999803e+00 6.828769000000000311e+00 2.605818999999999885e+00 1.347968999999999973e+00 1.050942900000000080e+01 1.005712899999999976e+01 1.508372899999999994e+01 1.416782899999999934e+01 5.403899000000000008e+00 7.021099000000000423e+00 8.385609000000000535e+00 3.642679999999999807e-01 1.010012900000000080e+01 1.014662900000000079e+01 5.456159000000000425e+00 8.196090000000000320e-01 1.219712900000000033e+01 1.369342900000000007e+01 6.134668999999999706e+00 3.455219000000000040e+00 3.790369000000000099e+00 1.090002899999999997e+01 1.359409000000000090e+00 1.450992899999999963e+01 8.111599000000000004e+00 6.065178999999999654e+00 1.172402899999999981e+01 6.206589000000000134e+00 6.434590000000000032e-01 1.390092899999999965e+01 7.693899000000000044e+00 1.258432900000000032e+01 8.029828999999999439e+00 4.759788999999999604e+00 7.646109000000000044e+00 1.457282900000000048e+01 2.922308999999999823e+00 6.189699000000000062e+00 1.434502900000000025e+01 5.985379000000000005e+00 1.128732899999999972e+01 8.922708999999999335e+00 1.491862899999999925e+01 4.665079000000000420e+00 1.606419000000000041e+00 4.713288999999999618e+00 4.709038999999999753e+00 1.017362900000000003e+01 1.435642900000000033e+01 7.034709000000000323e+00 1.021792899999999982e+01 1.329979000000000022e+00 9.951428999999999192e+00 1.506562899999999949e+01 1.329912900000000064e+01 1.335762899999999931e+01 9.637729000000000212e+00 1.504632900000000006e+01 1.316972900000000024e+01 2.045259000000000160e+00 9.585789999999999589e-01 1.073882900000000085e+01 7.855799000000000198e+00 1.127288999999999985e+00 1.252932900000000060e+01 6.409239000000000352e+00 8.494890000000000496e-01 5.163629000000000246e+00 1.488522900000000071e+01 8.930218999999999241e+00 1.872939999999999883e-01 2.021638999999999964e+00 1.138102899999999984e+01 8.412589999999999790e-01 7.327488999999999919e+00 1.477719000000000005e+00 1.189778999999999920e+00 3.073688999999999893e+00 1.124022899999999936e+01 7.128068999999999988e+00 2.233309000000000211e+00 5.057959000000000316e+00 5.960509000000000057e+00 8.077439000000000036e+00 2.015588999999999853e+00 1.296648999999999941e+00 1.498362900000000053e+01 5.129849000000000103e+00 3.122609000000000190e+00 8.325469000000000008e+00 2.298429000000000055e+00 1.500188999999999995e+00 1.258952900000000064e+01 1.976919000000000093e+00 1.243542899999999918e+01 2.321908999999999779e+00 7.003548999999999580e+00 1.338852900000000012e+01 4.692819000000000074e+00 3.958038999999999863e+00 6.998358999999999774e+00 1.229992900000000056e+01 2.742618999999999918e+00 3.048859000000000208e+00 3.189278999999999975e+00 1.319472900000000060e+01 4.290339000000000347e+00 6.804799000000000042e+00 1.159122900000000023e+01 3.023738999999999955e+00 4.908609999999999918e-01 6.686499000000000414e+00 5.818729000000000262e+00 6.604489000000000054e+00 2.575409000000000059e+00 1.071712899999999991e+01 6.112758999999999610e+00 1.046182899999999982e+01 8.076848999999999279e+00 6.397889000000000159e+00 9.148189000000000348e+00 6.381399000000000044e+00 1.396682900000000060e+01 5.026659000000000432e+00 7.690828999999999915e+00 6.461519000000000013e+00 1.283972900000000017e+01 3.798699000000000048e+00 2.449399000000000104e+00 8.235448999999999131e+00 2.173500000000000085e-02 4.165019000000000027e+00 4.757779999999999787e-01 4.394959000000000060e+00 6.966319000000000372e+00 1.182212900000000033e+01 1.359602899999999970e+01 6.160229000000000177e+00 8.129269000000000744e+00 9.150709000000000870e+00 6.460759000000000363e+00 4.237778999999999741e+00 4.369499000000000244e+00 4.988288999999999973e+00 1.270732899999999965e+01 1.367762899999999959e+01 2.122049000000000074e+00 1.970870000000000122e-01 5.068268999999999913e+00 1.052232899999999916e+01 1.003042899999999982e+01 1.319492900000000013e+01 7.752849000000000323e+00 3.632048999999999861e+00 1.053012900000000052e+01 9.636729000000000767e+00 1.209472899999999917e+01 9.111129000000000033e+00 1.626698999999999895e+00 9.334289000000000058e+00 1.339822900000000061e+01 5.596898999999999624e+00 1.326592899999999986e+01 1.084912899999999958e+01 5.105539000000000271e+00 1.196102899999999991e+01 1.624470000000000081e-01 3.570209000000000188e+00 1.032752900000000018e+01 3.192389999999999950e-01 9.428019000000000815e+00 1.114392899999999997e+01 9.754429000000000016e+00 8.443549000000000859e+00 4.466898999999999731e+00 7.379819000000000351e+00 1.008312899999999956e+01 1.344802900000000001e+01 4.584550000000000014e-01 6.028259000000000256e+00 3.865699000000000218e+00 2.954539999999999944e-01 4.319599000000000188e+00 8.567358999999999725e+00 2.781108999999999831e+00 1.094042899999999996e+01 8.376979000000000397e+00 1.361112900000000003e+01 4.459629999999999983e-01 1.408882900000000049e+01 1.297282900000000083e+01 7.195388999999999591e+00 1.397872899999999952e+01 9.241269000000000844e+00 1.155252899999999983e+01 1.131062900000000049e+01 1.103212899999999941e+01 3.708079000000000125e+00 5.366149000000000058e+00 1.320202899999999957e+01 7.987809000000000381e+00 3.070129000000000108e+00 6.654689999999999772e-01 8.513768999999999920e+00 6.260158999999999807e+00 1.298362900000000053e+01 1.300922899999999949e+01 1.481872899999999937e+01 2.811088999999999949e+00 3.050879000000000119e+00 2.519219000000000097e+00 1.916759000000000102e+00 1.036712900000000026e+01 8.607988999999999891e+00 4.933100000000000263e-01 7.903198999999999863e+00 1.433112900000000067e+01 1.456549000000000094e+00 1.255752900000000061e+01 3.259488999999999859e+00 1.233482899999999916e+01 1.349082899999999974e+01 1.153862900000000025e+01 6.350668999999999897e+00 1.359802900000000037e+01 7.863099000000000061e+00 1.723368999999999929e+00 1.281572899999999926e+01 7.556669000000000302e+00 1.183262900000000073e+01 1.459922899999999935e+01 1.269642900000000019e+01 3.825680000000000192e-01 9.379768999999999579e+00 1.025802900000000051e+01 5.081578999999999624e+00 2.404138999999999804e+00 8.917809000000000097e+00 4.724238999999999855e+00 8.018848999999999450e+00 3.772130000000000205e-01 7.088328999999999880e+00 9.230289999999999884e-01 6.925908999999999871e+00 8.306729000000000696e+00 2.701618999999999993e+00 8.798448999999999742e+00 5.475578999999999752e+00 5.648108999999999824e+00 1.486732899999999979e+01 1.130712899999999976e+01 1.180142900000000061e+01 3.657348999999999961e+00 1.175529000000000046e+00 2.139038999999999913e+00 1.171092900000000014e+01 9.678528999999999272e+00 1.449792899999999918e+01 1.069022900000000043e+01 1.441222899999999996e+01 1.311122899999999980e+01 6.012469000000000285e+00 1.023632899999999957e+01 1.557738999999999985e+00 1.100592900000000007e+01 2.245349000000000039e+00 2.938108999999999860e+00 8.427158999999999622e+00 6.629898999999999987e+00 9.489508999999999972e+00 6.806968999999999603e+00 6.401689000000000185e+00 1.398452900000000021e+01 5.177309000000000161e+00 1.124802900000000072e+01 1.416762899999999981e+01 7.583529000000000408e+00 8.309319000000000344e+00 1.122712899999999969e+01 5.881308999999999898e+00 1.256122900000000087e+01 1.619709000000000065e+00 1.256242899999999985e+01 8.507939000000000362e+00 5.209338999999999942e+00 8.540898999999999575e+00 3.853739000000000026e+00 2.952579000000000065e+00 7.149748999999999910e+00 6.345759000000000150e+00 4.264378999999999920e+00 7.298048999999999786e+00 1.117472899999999925e+01 5.637038999999999689e+00 5.066759000000000235e+00 1.425472899999999932e+01 1.385039999999999882e-01 1.364292900000000053e+01 1.142192900000000044e+01 2.743339000000000194e+00 1.337392900000000040e+01 1.935138999999999943e+00 1.470422899999999977e+01 1.300302899999999973e+01 7.236578999999999873e+00 1.205262899999999959e+01 4.821779000000000259e+00 1.513002900000000039e+01 6.459029000000000131e+00 1.430462900000000026e+01 5.159599000000000046e+00 8.638408999999999338e+00 6.073688999999999893e+00 9.268608999999999654e+00 5.210899000000000392e+00 6.029278999999999833e+00 2.778818999999999928e+00 1.072922900000000013e+01 4.242798999999999765e+00 1.421712899999999991e+01 2.329178999999999888e+00 1.252262900000000023e+01 5.319399999999999684e-01 9.277990000000000403e-01 2.538628999999999802e+00 8.729590000000000405e-01 6.225928999999999824e+00 1.145932900000000032e+01 1.625758999999999954e+00 5.259478999999999793e+00 1.228392900000000054e+01 6.424979000000000440e+00 6.323309000000000069e+00 8.490899000000000640e+00 3.907280000000000197e-01 1.469612900000000089e+01 2.965530000000000110e-01 1.270092900000000036e+01 9.167638999999999427e+00 1.405512900000000087e+01 1.086392900000000061e+01 9.638329000000000590e+00 7.609299999999999398e-02 1.356109000000000009e+00 4.873209000000000124e+00 6.205638999999999683e+00 1.430992900000000034e+01 1.131132900000000063e+01 1.051992899999999942e+01 4.192559000000000147e+00 1.421322900000000011e+01 1.410998999999999892e+00 3.503849000000000213e+00 1.161452899999999921e+01 9.266928999999999306e+00 1.124392899999999962e+01 9.048978999999999218e+00 7.338489000000000040e+00 1.739308999999999994e+00 2.437908999999999882e+00 8.531278999999999613e+00 1.465192900000000087e+01 1.229682900000000068e+01 3.035378999999999827e+00 1.118582900000000002e+01 3.940268999999999799e+00 4.764309999999999934e-01 1.494162900000000072e+01 1.143522899999999964e+01 1.433962900000000040e+01 1.055192899999999945e+01 1.413662899999999922e+01 9.737728999999999857e+00 9.179658999999999125e+00 1.013252899999999990e+01 1.100122900000000037e+01 1.063892899999999919e+01 1.231422899999999920e+01 5.890569000000000166e+00 1.145952899999999985e+01 3.621198999999999835e+00 9.162489000000000772e+00 3.854299000000000142e+00 7.357690000000000063e-01 1.445492899999999992e+01 9.050729000000000468e+00 6.409890000000000310e-01 7.500359000000000442e+00 4.369599000000000011e+00 9.838129000000000346e+00 3.380389000000000088e+00 1.097872899999999952e+01 2.722370000000000068e-01 8.297409000000000034e+00 1.168792900000000046e+01 1.839949000000000057e+00 5.168548999999999616e+00 1.202652900000000002e+01 1.097362900000000074e+01