-7.786849161174327310e+04
-7.787177097700000741e+04
-7.786720872679921740e+04
-7.786956237400806276e+04
-7.786967710218210414e+04
-7.786670757936662994e+04
-7.786923672766702657e+04
-7.787005947931764240e+04
-7.786877827232640993e+04
-7.786380209112228476e+04
-7.786759967778410646e+04
-7.787157493792969035e+04
-7.786829759825028304e+04
-7.787110188020417991e+04
-7.786753875605409849e+04
-7.786689221651037224e+04
-7.786554589414094517e+04
-7.786798112999401928e+04
-7.786830133596564701e+04
-7.786936196033580927e+04
-7.787070414150896249e+04
-7.786976233629199851e+04
-7.786532171577750705e+04
-7.787042957540303178e+04
-7.786859623533874401e+04
-7.787315332885962562e+04
-7.786667435551277595e+04
-7.786781863533626893e+04
-7.787138009779907588e+04
-7.786418523714515322e+04
-7.786455874586987193e+04
-7.786953055196153582e+04
-7.786628801058461249e+04
-7.787193296174763236e+04
-7.787278538630715047e+04
-7.787042463596316520e+04
-7.786734416970876919e+04
-7.786662681604952377e+04
-7.786861481533083133e+04
-7.786695861116722517e+04
-7.786683159929835529e+04
-7.787031042356365651e+04
-7.786334255808897433e+04
-7.786920697774308792e+04
-7.787151597592068720e+04
-7.787239075123854855e+04
-7.787407322592652054e+04
-7.786504830352771387e+04
-7.786803615614562295e+04
-7.786717366618552478e+04
-7.786436120603921881e+04
-7.787013520964869531e+04
-7.787159472113946686e+04
-7.786941842221008847e+04
-7.787465416087691847e+04
-7.786505219017073978e+04
-7.786603938256578112e+04
-7.786750718435362796e+04
-7.786944546067783085e+04
-7.787173941738784197e+04
-7.787056464006850729e+04
-7.787119222000248556e+04
-7.786398034221843409e+04
-7.786484371905829175e+04
-7.786528480018666596e+04
-7.787034097488007683e+04
-7.786315318470002967e+04
-7.786784922527613526e+04
-7.786485548382673005e+04
-7.786729120560084993e+04
-7.786900697301348555e+04
-7.786760020038062066e+04
-7.786892150207022496e+04
-7.787230975377932191e+04
-7.786745915587774653e+04
-7.786727662646611861e+04
-7.786683060534026299e+04
-7.787068342063670570e+04
-7.786546678527689073e+04
-7.786754348515153106e+04
-7.787044543068167695e+04
-7.786491769041560474e+04
-7.786704392694159469e+04
-7.787050657997383678e+04
-7.787333933886943851e+04
-7.787247484536987031e+04
-7.787061585594425560e+04
-7.787435052743398410e+04
-7.786420010432452546e+04
-7.786884162862751691e+04
-7.787222261798696127e+04
-7.787464268249482848e+04
-7.786769447828507691e+04
-7.786754006511782063e+04
-7.786789487793734588e+04
-7.786904053113871487e+04
-7.786392037330409221e+04
-7.787451846050711174e+04
-7.786936821464751847e+04
-7.786851600212461199e+04
-7.787206377103796694e+04
-7.786750398638665501e+04
-7.786945863305938838e+04
-7.787134763423794357e+04
-7.786855365471154801e+04
-7.787126793862924387e+04
-7.786846514993539313e+04
-7.786806757040855882e+04
-7.786460056360226008e+04
-7.787049030928284628e+04
-7.786762873909027257e+04
-7.786748450761334971e+04
-7.787199175329721766e+04
-7.786581550853702356e+04
-7.787121347491237975e+04
-7.786489491459132114e+04
-7.787031832834734814e+04
-7.786566015051207796e+04
-7.787064490340132033e+04
-7.786319114041968714e+04
-7.786700187772286881e+04
-7.787044061551574850e+04
-7.786840606489425409e+04
-7.786889122618309921e+04
-7.786402638331448543e+04
-7.786799803155801783e+04
-7.786103335762959614e+04
-7.786670558186979906e+04
-7.786960288566314557e+04
-7.786879701879301865e+04
-7.786394861786600086e+04
-7.787048391370300669e+04
-7.786657943162928859e+04
-7.786876323890069034e+04
-7.787276670023662155e+04
-7.786523216607116046e+04
-7.787024514956142229e+04
-7.786927826574332721e+04
-7.786056044325497351e+04
-7.787334844481028267e+04
-7.786626015129211009e+04
-7.786996745008676953e+04
-7.786449146199916140e+04
-7.787227252066296933e+04
-7.787048165214103938e+04
-7.786778075088679907e+04
-7.786776277037289401e+04
-7.787121479223929055e+04
-7.786918044372166332e+04
-7.786326902600222093e+04
-7.786522079535058583e+04
-7.786891816380320233e+04
-7.786652424663952843e+04
-7.786557036789490667e+04
-7.786663805563810456e+04
-7.786965485103477840e+04
-7.786727779416492558e+04
-7.786605443220109737e+04
-7.786517295450037636e+04
-7.786511553110163368e+04
-7.787006216274293547e+04
-7.786850659174079192e+04
-7.786517829210593482e+04
-7.786832035290155909e+04
-7.786295452427594864e+04
-7.786942344011273235e+04
-7.787112351084030524e+04
-7.786362463901737647e+04
-7.786961655094398884e+04
-7.786748484350707440e+04
-7.786939343492640182e+04
-7.786920996159229253e+04
-7.787035181599929638e+04
-7.787354916627421335e+04
-7.786796782841865206e+04
-7.786713484104901727e+04
-7.786668233789794613e+04
-7.787074708376529452e+04
-7.786797315674937272e+04
-7.787034283296343347e+04
