-3.092173467967403999e-01 -2.220889269503381502e+00 -9.043665855749164484e-01 -5.570722262533063240e-01 1.094179320588254178e+00 2.434104701645870561e-01 -1.435097343542799941e-01 -4.721995896629554434e-01 9.321324451294333846e-01 -3.439708996785478146e+00 -2.203806858687746395e+00 7.960444577740115601e-01 -2.089802078210032388e+00 -1.266935355819694520e+00 1.074087176163229351e+00 -1.180495888833340334e+00 -4.871140461137890565e-01 2.317743762036390986e+00 7.053734688550302723e-01 -1.923203835558882080e+00 -5.432990825901097054e+00 -1.093123625542965272e+00 2.833238161411039346e+00 -2.626600640140122511e+00 -1.872592694086657739e+00 9.272550620293040780e-01 2.476555675230275977e+00 2.047523882772346593e-02 8.253951454481488481e-01 5.914823311464393107e+00 -8.012118613347075646e-01 4.852419743252458950e+00 -4.103234672907599467e+00 -2.332593940902879748e+00 -2.482498009347840484e-01 2.569087628771226095e-01 -9.103274316367722108e-01 2.651551655720985501e+00 -7.302796958151213325e+00 9.265078993888729020e-01 -1.005668058503278450e+00 -2.083302843101699775e+00 9.593789418024394333e-01 -7.146710928754247405e-01 1.107803083145431966e+00 -6.416805534168287806e-02 2.986922780256859866e-01 -3.147282497681782587e-01 1.921235913036563492e+00 -1.107985631484972977e+00 -4.653383431995892772e-01 -1.154600249872937273e-01 -1.865517531822590058e+00 2.222991403621814022e-01 7.906384558202254054e-01 3.359309051624217890e+00 -1.507772151507091429e+00 4.660996983306437969e+00 5.453819334332383306e+00 -1.414547542717235817e+00 -1.330763511295358859e+00 1.273094176841334191e+00 4.170024225249225225e+00 1.549670852086801887e-01 -5.478455646860291156e-02 6.524673605113375796e-01 -1.396347216154665061e+00 1.985777806808799006e+00 -2.105375765565912882e+00 -1.618209783163972348e+00 2.779716016698980052e+00 -2.737304123885856200e+00 -4.847090360179213131e-01 2.990131003046707647e+00 6.109309283969978743e+00 1.003948504566870348e+00 1.008333264260576678e+00 -2.551874091683525414e+00 -1.467133291580551002e-01 1.415605808865898485e+00 -7.991606350630769962e-02 1.284812237577839245e+00 -1.101764075541012411e-01 7.114243035349695488e-01 4.607960262911355187e+00 6.957652555470786870e-01 1.528356405117864636e+00 6.282100286207302764e-01 6.052202506934144521e-01 -2.106248912271660778e+00 1.715717850174605930e-01 6.731446880642429909e-01 -4.968182129996513652e+00 2.771603157113240012e+00 -2.672000669294295694e+00 -1.177840967489537372e+00 1.602919945620561837e+00 -3.874888297410202131e+00 -1.037349708496117628e+00 -8.093458039681128424e-01 -2.811779218432493455e+00 -4.008761536319419005e-01 -3.976901965973111519e+00 3.491114609200211660e+00 2.653991118602061938e+00 2.084576567713088302e+00 4.169841162689009173e-01 1.052236397030514192e+00 1.714427156280950437e-01 1.296929847778635514e+00 -3.906143658463662183e-01 -1.908781488293797235e+00 -7.576542848582108469e-01 2.006335835165159232e+00 -5.379493878002101770e-01 -6.172951805782053158e-01 4.780519351624361590e-01 -4.752592026777969214e-01 4.597312809619707452e-01 4.737152036797527721e+00 3.951241325861075460e+00 -3.148998452073467291e+00 -4.670581028242675181e+00 6.504876109134989370e-01 -8.831117882042519573e-01 1.267058768781637923e+00 -1.190091246624422450e+00 -2.431149475428005857e+00 -3.034354495297023058e-01 2.639912270747719170e+00 -1.190671801766230331e+00 1.666015336634688149e+00 1.873941494916561812e+00 -4.099696320444553010e-01 -5.979328181348045668e+00 -7.763924862465839682e-01 5.233452121045287342e+00 1.041735496631173596e+00 1.657915846786492065e+00 1.937544935957354664e+00 2.151458165555496738e+00 -4.668154935099142477e+00 6.619290209269815817e-01 -3.149967243824721486e+00 -2.754759858911369541e+00 -2.482115943386491441e+00 -4.171502095468494486e-01 -1.553670974715785080e+00 5.093626777825686069e+00 -3.005918606203289212e+00 -9.520358705668201527e-01 3.539869414036540540e-01 8.361068763241423785e-01 4.023929503562910348e+00 -1.172885937067518869e+00 -1.634921955093778134e+00 1.928966192440279004e+00 -6.630812351929234794e+00 -9.582245163875959815e-01 -2.844657459935507227e+00 -4.654252464936243228e-01 -3.046189798347374467e+00 -3.729156615520270446e+00 1.452424009178948205e+00 2.361409324854588099e-01 4.018512702974954109e+00 1.673399545524288712e+00 -1.428149193785398730e+00 3.994927457506262769e+00 -9.718518784894971674e-01 8.305795182911119845e-01 -2.799499628719147037e-01 2.786968070875166514e+00 -4.365387972446632681e+00 -2.903711590666669284e+00 1.083940672733042954e+00 -3.843470442623516448e+00 1.960596934586316786e+00 -8.714384646664512513e-01 -2.264641735615613882e+00 -6.507629760848347544e+00 1.223472910168029060e+00 -3.320990869602884477e+00 7.554493066048260097e-01 -6.902522956929418863e-01 -1.223145351598204922e+00 -1.589098722324274959e+00 3.095339524661921526e+00 -2.130618344269366471e+00 1.575287269220808417e+00 -2.755960049966267089e+00 3.823217347127290555e+00 6.969330506994660945e-01 3.648458422367647280e+00 -7.202750697889948039e-01 1.548192981867532181e+00 -1.776632431307061675e-03 -2.359400264678288117e+00 4.690191347895447671e-01 -2.148280281785460155e-01 2.026527738401088019e+00 1.121542031133756723e+00 -1.400541714198708876e+00 1.182722978575739964e-01 -2.081323093503860910e+00 2.028103310548562632e+00 1.549516585884372910e-01 -1.625339452819565267e+00 1.834955340238710653e+00 2.294695362952152262e+00 5.121149411001040264e-01 2.176180352936090134e+00 -3.338063510225699471e-01 2.313846997763035152e+00 2.072720695835746640e-01 -2.804801758096631126e+00 2.823663372446947317e+00 3.621634615089297515e+00 -1.951497285525706005e+00 3.436474034520542453e+00 1.769535157553979277e+00 -9.442377140340353636e-02 -4.875423919358669034e-01 -1.304394275093498923e+00 2.701807984927623085e+00 -1.305384149892418133e+00 -1.637855069822627962e+00 -2.890311514103013568e+00 -5.256096342679161815e-01 1.142613765944205495e+00 -1.790964789954063496e+00 -2.745796992550246340e+00 2.497367214379294875e+00 -2.652483937804330782e-01 4.710760174885977314e-01 -1.864336881153333847e+00 1.910310780580543044e+00 -4.152740754149757407e+00 -3.848634246639489387e+00 1.695992859311362011e+00 -1.894949466363340163e+00 3.624363584210265277e+00 2.928529423092768535e+00 2.006385200349936948e+00 -1.884891309964970840e-01 -3.143767285149101198e+00 5.966595048999557838e-01 -3.259207255530078395e+00 4.539124626504846383e+00 -4.791539100684538144e-01 1.050249962563903683e+00 -2.904086971759246572e-01 1.099827006259179285e+00 1.795837545068119878e+00 2.705176130347322516e+00 2.098814309755933749e+00 -3.608501933276517804e+00 1.465966010648838358e+00 -1.166694720143369168e-01 1.288723914250763602e+00 -2.478366760446792494e+00 3.564924302193705596e+00 -4.267855737064285115e+00 5.869179027489706435e+00 1.942604867397025536e+00 -1.133228210188426566e+00 -5.112659627660698369e-01 -3.145405592218896706e-01 -1.651310167998483625e+00 -9.891029536864550664e-01 1.280017644006346655e+00 -2.492988111113011440e-01 5.267331550202063895e+00 -6.021215569072911888e-01 2.185714004246201103e+00 -3.326758368691029144e+00 6.573611986730595325e-01 -4.530258433630578452e-01 -3.576772974981601294e+00 -6.136699248211244795e-01 1.320050751978016079e-01 -7.160008675403626080e-03 1.741329639322539480e+00 -1.646339196735546961e+00 3.441380728199133543e+00 -4.424786631029886674e-01 2.297083917986427970e+00 -1.718042127624535842e-01 -1.619352895723971342e+00 -2.412815965710671140e+00 2.477602114303419256e+00 2.259384343436833920e+00 -9.565368441330229787e-01 1.751938526063580470e+00 -2.491892821075765152e+00 -1.131022717714367021e+00 1.569247233175039113e+00 -1.605102812384931577e+00 2.289495563488946062e-01 -1.064845087975709426e+00 1.459919289734297188e+00 6.027154817866426928e-01 -1.626387434554732669e+00 5.640404306170231363e-01 1.707941290910161225e+00 1.308039071236221096e+00 -3.675464263764864903e-01 4.073702465335270473e-01 2.955894190520969911e+00 -2.601735499411944819e+00 -1.187260461809851009e+00 -2.107030013476625996e+00 1.838177961207452027e+00 -4.785375137456151506e+00 4.787291637910993936e-02 1.381861105525909350e+00 -7.190651085412769206e-01 3.987594670684138976e+00 -2.431687864474482708e-01 -6.793667582288784867e-01 1.041271155361862544e+00 1.772796345073327950e+00 -1.185414923808125520e+00 -1.616396126844082404e-01 9.182572286622964208e-01 5.221191043276232624e-02 1.625888126279537493e+00 -5.475236625436272764e-01 1.418358432137906355e+00 1.742179646097923307e-01 1.521712673999923437e-01 -1.739150372102892916e+00 3.856809326926875087e-02 8.684261599536878817e-01 -1.074426047587898392e+00 8.286943852974300029e-01 -2.781837176982378423e+00 6.247042777484643317e+00 1.068370070701211372e+00 -1.218441260865470666e+00 -5.436808914411214166e-01 6.437975999348289902e-01 -3.588977488476431610e+00 -3.225518602243638622e+00 -1.135190476283323147e+00 -1.269275574110542371e+00 -2.675289624730081695e-01 1.427292502141243258e+00 1.320518692792050475e+00 -1.013130428935443028e+00 -1.318970888561012966e+00 1.794219806825315011e+00 -1.631192312539720524e+00 2.447393706543777192e+00 3.644811569342226720e-01 -4.303415125165514499e-01 2.175323147071259733e-01 1.559029668367493127e-01 -6.946545388895901674e-01 1.117676120100886461e+00 2.959841348420452878e+00 -3.862547001215884013e+00 1.911621529080514303e+00 -4.478903214841972180e-01 6.564412578859080138e-01 1.620245068594685645e+00 9.445585877350877180e-01 -3.592098807972245122e+00 2.335607274056992200e+00 -1.007277054994612842e+00 -5.702337044238718899e-01 3.750324509596900113e-01 -8.994629772203740492e-01 -1.005522019831645908e+00 1.641150710127186052e-01 -6.018212520332293369e-01 1.202380092309915049e+00 7.723559053717599099e+00 1.173189841486303786e+00 1.412108594056833644e+00 -7.568536432676044035e-01 2.876987542199223036e-01 2.199505916964026309e+00 4.299553327898042454e-02 2.042987942200260143e+00 1.106318528057390393e+00 4.006694883427545761e+00 -1.423675473914958411e+00 1.216784956072058055e+00 -9.642804932742828905e-01 1.792787188025424028e+00 1.398937345693447520e+00 -3.669102325576693691e+00 1.811563441743729852e+00 2.615151516816517918e-01 -5.419263704988291908e-01 -2.617975616762318491e+00 2.330326227727173016e+00 1.100664157517693642e+00 1.876222063609136903e+00 -1.670691145230310592e+00 1.681003840862687948e+00 1.422626463738441593e+00 7.313657813022887977e-01 -1.199045371234075397e+00 -2.063276518923044200e+00 -3.712850163702852146e+00 -2.955815000537056925e+00 1.045318072072249083e-01 1.986512113932360712e+00 -1.429278422387178837e+00 -5.587305879294177657e-01 -2.139689196972190288e+00 -7.824196667754842460e-01 1.812982690806076658e+00 -1.039044579840137511e-01 4.757533687462443539e-01 8.166544224185230683e-02 -2.606253956481089595e+00 -2.771851011478476234e+00 -7.963817865366562554e-01 -9.066049881721609527e-01 4.378357132084837566e+00 -3.455658579454610191e+00 -9.287822974333507231e-01 1.084048659074743126e+00 5.098497990277718606e-02 1.085015908163972975e+00 -7.967849355456707583e-01 3.023347087533040600e+00 -9.871849105695879034e-01 3.536120745317516412e-01 -1.454011922622616915e+00 -1.075919344427410801e-01 -9.225376015590258660e-01 -2.126461384334580096e+00 -5.634008943638201927e+00 2.345735364467128825e+00 1.556463192979749666e+00 3.384405077435364451e+00 -1.869131474724826214e+00 -3.868615833619440392e-01 1.388356741089518787e+00 -1.759781419795069524e-01 -7.532170746556787755e-01 2.250794287064914023e+00 -4.351129661576796925e-01 1.201404615689889155e-01 4.051894366518560830e-01 6.662808704975029528e-01 -1.026932626066763943e+00 1.752108733106927163e+00 1.407341254181103452e+00 -7.799318671509796186e-01 3.617295621035644393e-01 -2.931016708496598233e-01 -6.149673035835521162e-01 -4.344185625584793264e+00 -2.639495237780486114e+00 -3.982741970176398305e-02 -3.594366521147950855e-01 -3.231876940887086491e-02 2.534979371414178839e-01 -5.816098084116594347e-01 -1.918090939389711203e+00 6.769463215127677902e-01 -1.726117449101018275e+00 -2.031770732400974389e+00 6.749706856803273647e-01 2.484364630397231100e-01 9.356785109026007907e-01 -2.729341930957821738e+00 -3.785044689556915087e-01 -1.331499875301619840e+00 6.186151850503226468e-01 5.615490314477951106e-01 3.488241658290309188e-01 -1.182530660043378257e+00 -2.217628081984032995e-01 4.206124573500304997e+00 -1.564858873936609385e+00 -3.222251244076193011e+00 1.215038148439887333e+00 1.037373362647156932e-01 6.264231117759280210e-01 2.610720991482758269e+00 -9.237413921586464793e-01 1.844931221329117743e-01 1.664750353774770542e+00 -5.113626362529253289e-01 2.326022200679405127e+00 -2.046682617748433852e+00 1.360464897469684908e+00 -9.948133742797009571e-01 1.867310105094814876e-01 3.740456614848192696e-01 -1.376959554054065782e+00 4.417178736146763818e+00 2.508761316090699189e+00 5.732822102721383928e+00 3.038530481396775063e+00 3.557517467594415450e-01 -1.197072306505008621e+00 -9.290188389437418204e-01 1.032955178609590963e+00 -9.943181797699038871e-01 6.571875977732594798e+00 3.347422326506390572e-02 7.994542550683667592e-01 -1.704779347981041582e+00 9.018186221314645756e-01 -2.369668223111960792e+00 4.061602852858091639e-01 -1.405482346441834451e+00 -7.423819308177420639e-01 -1.445577160894475077e-01 -3.270402353840349829e-01 -1.723676443557917048e+00 -2.367234416658306362e+00 -1.529883126301236684e+00 5.321093835969238350e-01 -7.674609873466210486e-01 -2.207621347653140054e-01 -1.522962230239598147e-01 -9.074966468222003813e-02 4.172556247851759714e-01 -1.671269129268744491e+00 4.434138248221130674e+00 -1.821425165844339666e+00 -8.700089311906092915e-01 5.730778589759873975e-01 -2.280746098707849612e+00 -1.031254136617474115e+00 -2.169641008615125488e-01 9.658313828293687564e-01 -2.968950767673884106e-01 9.352028567784449742e-02 1.007968681802169586e+00 -2.671704992406306989e+00 -1.599310116483723565e+00 8.201639785237822000e-01 -1.231149710621569637e+00 5.844678469219937167e-01 1.551860917940618645e+00 -2.446800295885100063e+00 3.262221102904866221e+00 -7.062029068034234580e-01 -1.499085421648315819e+00 9.348048499761780761e-01 4.148538542795592754e+00 1.692853542091932395e+00 -2.583907468617902686e-02 -1.382229287529039619e+00 4.286058634730229855e+00 -2.415358272726700672e+00 -1.011006697548670896e+00 1.460996582047926484e+00 -2.562178559785106557e+00 -4.586082230082877409e-01 -1.729752989271594377e+00 -6.803196091392148537e-01 -7.628977930787718409e-02 -1.985616855737598052e-01 -1.519597684364622170e+00 -1.068392696410900955e+00 -2.116635141460529168e-01 8.776152834117073587e-01 4.437336700818158342e+00 -1.397975753031640289e-01 -1.741029848669152891e+00 1.263187201321345210e+00 -3.769367129624732193e+00 -2.306156313351276133e+00 4.860382964621843827e-01 8.059874287412339688e-01 2.660181821305536709e-01 5.421886230429584508e-01 -5.956439190672984108e-01 -1.180195583959278371e+00 5.456560644749545830e+00 -2.644177217024205273e+00 3.054956746631413367e+00 1.458636309150763033e+00 -4.976910511729945030e-01 5.153910410190206681e-01 -3.444783326404041279e+00 -9.372504835053521166e-01 -1.622077236858866733e+00 5.712991696619813429e-04 -2.630322055163384576e+00 -2.313871680355423788e+00 4.395423602059555179e+00 2.749086462206706383e+00 -2.502844178786197915e+00 -6.746061032219201337e-02 2.522393306178672745e+00 -6.803746307514144664e-01 5.182279964816896012e-01 1.304739317166265122e+00 -5.952805707385105727e+00 -4.858650040947891102e-01 8.758916157099010391e-01 -3.603281564986321683e+00 6.416800391961539063e-01 -1.091394815634411097e+00 6.267671254073446940e-01 -8.429244140301537236e-01 1.076971954148651323e+00 -8.724910743876914676e-01 -2.484322464301900624e+00 1.532602325229384999e+00 -3.972624678400431097e+00 6.484507828207616287e-01 -3.454683617055258615e-01 2.807116779574415411e+00 -3.519624546071111193e-01 -1.970005116051785632e-01 -1.071426598392004159e+00 -5.769478837742557653e-01 -2.230196663716596639e+00 -5.425439495292199155e-01 -5.714354381407936723e-01 3.205999813870974879e+00 -1.345059360274452276e+00 -2.298633264879489602e+00 -2.497052511326339985e+00 -2.555561568142253215e+00 -1.791606023135493109e+00 1.933331925969019149e+00 -2.110845530883369570e+00 4.083706114342115612e+00 4.394097941160015175e+00 7.211595293495876025e-01 -1.877373403699931775e-01 5.539020557933908018e-01 -7.541462714149759217e-01 3.256076165841444991e-01 -2.669681534051113303e+00 1.418277185271293594e-01 -1.471919657621247435e+00 -1.128035095593992621e+00 1.901792200882414630e+00 3.151030137959457189e+00 -2.144230793971699356e+00 1.000863180518290818e+00 -8.858042476573122492e-01 9.387617780684813784e-01 -3.298807903914272033e-01 7.589465214138909621e-01 1.212883049591954698e+00 -1.860375325074957731e+00 -1.056463805197742856e+00 7.189730630404941869e-02 1.802585662983038350e+00 1.322843998683330025e+00 2.972182644614770552e+00 1.554436649300507733e+00 -4.199578544310568762e-01 -2.146587467324139187e+00 1.286970935970495611e-01 7.698911942555520804e-01 3.705685012820701396e-01 -3.802790445042995016e-01 -1.413952589396534620e-01 -1.571162190967857475e+00 -2.682906261364675249e+00 -1.317331038829193002e+00 1.499198035976088805e+00 9.592272467033843841e-02 7.367280744987201313e-01 -7.599050287516497804e-01 1.363430408101044544e-01 2.585854822313231161e+00 -1.468201842142709213e+00 -1.666182972574661525e+00 -2.217804459675476902e+00 2.586351559485052576e+00 -2.556656858179498837e+00 -1.238615680598457391e+00 -1.658710831949676390e+00 -2.558340416668673512e-01 -6.052548577448260581e+00 -2.666822467099430050e+00 4.256770167757738754e+00 -1.686626329720549489e+00 1.547851539339489380e+00 -2.062528842061938650e-01 5.599662602108738119e-01 4.534992349162449088e+00 -3.694274456047704214e-01 1.996945137202632559e-01 2.551630351083687742e+00 -4.729669097538372391e+00 -2.300185697096599924e+00 1.262649840716217664e+00 1.346088830065328201e+00 -2.752329652002438731e+00 2.063363422217079801e+00 1.892724947724314433e+00 -2.748571727311268642e+00 -2.371000568880272663e+00 2.019017031225495806e+00 2.142763208165925359e+00 -2.847354547374640443e+00 2.905928910216247996e+00 -1.625059716772493834e+00 5.740949874706692269e-01 -6.783969380362748769e-01 -1.857668467443003846e-01 9.469810813338973565e-01 2.858089932401673000e-02 1.145763881797805306e+00 1.177298978898336790e+00 -1.157365728661813975e+00 1.930266142306080734e+00 -3.035328429255024663e+00 -8.699338549720937452e-01 -5.006838155001167578e-01 -4.142193573889688452e+00 7.129288618072593842e+00 2.128609284093065934e+00 -1.671156000720296797e+00 -8.233655164448583363e-01 -1.497889858579491085e+00 2.440689811606888249e+00 9.225376015590258660e-01 -3.312491316069722247e-01 -1.622268526949878775e-01 -5.881707500009638601e-01 -9.645802839276698126e-01 1.503627018647824887e+00 1.317666824929813574e+00 5.763908799393521853e+00 -2.026605385722977548e+00 -2.108880693685099006e-01 -1.214050844744341884e+00 1.683022157011133668e+00 -2.308191084561313833e+00 -1.398781022608319713e+00 -1.446905907118063439e+00 1.649581358089929228e+00 -1.732255187074992486e-01 6.565986094123856809e-01 -2.382771080125603458e+00 -2.294761183198522000e-02 3.268129498457895910e+00 -2.992248563785382842e+00 -9.234981657794836263e-01 1.688695553715796605e+00 1.625368763398026495e+00 1.310009564861913667e+00 -2.445794480245263358e+00 8.389613152897532067e-02 2.577006627162579666e-01 1.458033642519940498e+00 4.516704605085167579e+00 -1.742426986242484599e+00 -1.788949559129666023e+00 -1.177718582968943828e+00 -3.068411330586593988e-01 -7.038637169539254668e-01 -1.524772287014764804e-01 -4.399910177446864523e+00 3.181995478552350765e+00 3.597585542571968831e-01 2.123630085299333725e+00 8.819753605130251639e-01 -1.669819541186587042e+00 -2.293456091125972929e+00 -9.895081595781684003e-01 1.454891754197137121e+00 -2.892347313754400906e-01 1.713444994792152620e+00 6.265917761572503686e-01 1.811003455428912723e+00 5.853631051167563770e-01 5.364619530763899746e+00 1.339226040939937856e-01 -1.387381264469492947e+00 3.653075095585672089e-02 9.857471495629499536e-01 2.458499330456638710e+00 -1.082973937864488256e+00 -9.045928426718123916e-01 1.617380345215579496e+00 -3.078454060364719802e-01 -1.400914009967237694e+00 -2.315787666589591565e-01 1.186831601767098343e+00 1.877509157958069386e+00 4.668280404943785378e-01 -2.477014360072165022e+00 -6.702557963134230246e-01 -3.942977285396955245e-01 -4.495553680290806375e-01