-4.036095658529742281e+01 1.199615271381274617e+01 -1.594144372624408312e+01 1.199615271381274617e+01 -3.709385900979795370e+00 -2.727916573819718948e+01 -1.594144372624408312e+01 -2.727916573819718948e+01 1.164335021376278689e+01
-6.438604488779786550e+01 9.798597301838258389e+00 -1.665400184157732255e+01 9.798597301838258389e+00 -3.364810684364690729e+01 -7.932874290973732201e+00 -1.665400184157732255e+01 -7.932874290973732201e+00 -4.044761151558664380e+01
-6.368398189102619966e+01 1.938223828956553163e+01 5.753953530877537581e+00 1.938223828956553163e+01 2.670657237216984825e+01 -1.419357030816156673e+01 5.753953530877537581e+00 -1.419357030816156673e+01 -5.537024548661301537e+01
-7.360868759367144776e+01 1.508426792301220765e+01 -1.272004026886317796e+01 1.508426792301220765e+01 -5.068124780246613881e+01 -1.274220630275756383e+00 -1.272004026886317796e+01 -1.274220630275756383e+00 -8.770769128085473199e+01
-8.538590319537919981e+01 1.845469276170069861e+01 -1.925921958861465200e+01 1.845469276170069861e+01 -2.073973618337567615e+01 -5.560555111047567500e+00 -1.925921958861465200e+01 -5.560555111047567500e+00 -5.928839524859105836e+01
-5.273429395803431419e+01 2.346233107132246687e+01 1.465975471698955879e+01 2.346233107132246687e+01 -3.672805068484233004e+01 -2.548998067160763981e+01 1.465975471698955879e+01 -2.548998067160763981e+01 -3.855618143909457984e+01
-9.687797397555337753e+00 -1.748068671697645016e+01 1.179637720605429152e+01 -1.748068671697645016e+01 -3.069989967302219469e+01 -1.359262356351061385e+01 1.179637720605429152e+01 -1.359262356351061385e+01 2.107121441674195950e+01
9.148537039914453217e+00 7.979888970992408126e+00 -1.333654481032734829e+01 7.979888970992408126e+00 -3.361722508956088262e+01 7.235563367919299438e+00 -1.333654481032734829e+01 7.235563367919299438e+00 -3.881458553939752676e+01
-6.080128504127345934e+01 -1.041453424559106011e+01 -1.727331061315243943e+00 -1.041453424559106011e+01 -5.094269637309002263e+01 -2.600690525142689946e+00 -1.727331061315243943e+00 -2.600690525142689946e+00 -3.990408344751937619e+01
-1.058620226333021179e+02 6.342189219077009277e+00 3.538748779707556480e+01 6.342189219077009277e+00 -9.529514894910539624e+01 6.394638174422282439e-01 3.538748779707556480e+01 6.394638174422282439e-01 -4.710649222166865968e+01
-4.194761758314991340e+01 1.333917762317047995e+01 -7.567838041594381338e+00 1.333917762317047995e+01 -1.339089105666351864e+00 2.734577411659407531e+01 -7.567838041594381338e+00 2.734577411659407531e+01 -3.759516479184999582e+01
-2.301405499490835282e+01 -5.319535119746182872e+00 -8.418217362297975015e+00 -5.319535119746182872e+00 -4.629301255798882408e+01 -2.977519193911138728e+01 -8.418217362297975015e+00 -2.977519193911138728e+01 -6.955979719469789302e+01
-7.762849199911379117e+01 8.635255359231470251e+00 -1.751018449775047969e+01 8.635255359231470251e+00 -7.012321382935115821e+01 5.849066922990032502e+00 -1.751018449775047969e+01 5.849066922990032502e+00 -7.949725724400818194e+01
-8.562878207439469591e+00 4.989404738567557729e+00 1.309967562711418232e+01 4.989404738567557729e+00 -2.360202651083215919e+00 3.756607182540701917e+00 1.309967562711418232e+01 3.756607182540701917e+00 8.151725048884371105e+00
-7.235063144978182947e+01 2.852066230031226723e+00 1.836564507808077451e+01 2.852066230031226723e+00 -5.514145098219123042e+01 -3.988627619234651256e+00 1.836564507808077451e+01 -3.988627619234651256e+00 -5.165688986680937944e+01
-4.942080791506512583e+01 1.617857344730541058e+01 -1.034785509728507336e+01 1.617857344730541058e+01 -7.360181976682824256e+01 -4.569148328516092761e+00 -1.034785509728507336e+01 -4.569148328516092761e+00 -2.430473866954962148e+01
-3.317504139088354975e+01 2.351924530017870651e+01 1.294578406015243566e+01 2.351924530017870651e+01 -3.731851120636042651e+01 -7.218561737014089097e+00 1.294578406015243566e+01 -7.218561737014089097e+00 -1.892658669548595896e+01
4.206538816665129588e+01 -6.674451403176159481e+00 1.934706751750620457e+00 -6.674451403176159481e+00 5.932310444585016107e+00 8.966524570536048344e+00 1.934706751750620457e+00 8.966524570536048344e+00 2.774690870204376481e+01
-4.866772314244512643e+01 4.237337783619489429e+00 -1.142190010565809111e+01 4.237337783619489429e+00 1.108987801435527887e+00 7.612552878215350205e+00 -1.142190010565809111e+01 7.612552878215350205e+00 -9.297653549122486538e+00
-2.175953278947845604e+01 1.456325811786285840e+01 1.025850114767317045e+01 1.456325811786285840e+01 -5.931067380286201285e+01 2.324647206014934753e+01 1.025850114767317045e+01 2.324647206014934753e+01 2.287876120123740264e+01
3.748580570197172612e+00 -2.100999601570955022e+01 4.423904133976409025e-01 -2.100999601570955022e+01 -2.047426915309921824e+01 2.023569272130330887e+01 4.423904133976409025e-01 2.023569272130330887e+01 -1.635077493329629306e+01
-3.472052078311485701e+01 7.186054816872275985e+00 -1.451264183616920711e+01 7.186054816872275985e+00 -2.679073865025487322e+01 -1.055382838190348238e+01 -1.451264183616920711e+01 -1.055382838190348238e+01 -4.684753640463210900e+01
-3.782863843784596725e+01 1.880534891335910430e+01 -2.062062443603941730e+01 1.880534891335910430e+01 8.985134968307095349e+00 -2.831625072258353804e+00 -2.062062443603941730e+01 -2.831625072258353804e+00 6.854106795202480562e+00
-7.476591053971804968e+01 3.714163142492045466e+01 -3.650617811567036597e+01 3.714163142492045466e+01 -5.354557133310137829e+01 4.769194657925752701e+00 -3.650617811567036597e+01 4.769194657925752701e+00 -3.150008624547485780e+01
-7.431288668877103021e+01 1.470492627807789709e+01 -2.474101643814878315e+01 1.470492627807789709e+01 -7.593651196163503414e+01 -8.268942194660603207e+00 -2.474101643814878315e+01 -8.268942194660603207e+00 -7.594339578953501757e+01
-4.694626864737446681e+01 1.885005560027289206e+01 -5.490080538653666409e+00 1.885005560027289206e+01 -1.099352634502046868e+02 2.995250126407511715e+01 -5.490080538653666409e+00 2.995250126407511715e+01 9.533772319631809822e+00
-7.597341354982711437e+01 2.356636482938419874e+01 -4.566601240118478344e+00 2.356636482938419874e+01 -7.563097456370884686e+01 4.740670027409945675e+01 -4.566601240118478344e+00 4.740670027409945675e+01 -5.946228634269303370e+01
-1.195699057725556713e+02 -1.791587142671542665e+01 -2.055718747938149349e+01 -1.791587142671542665e+01 -7.086642676809188401e+01 -3.184088274371948657e+01 -2.055718747938149349e+01 -3.184088274371948657e+01 -6.748772494941718492e+01
-2.923970774364476100e+01 2.033238772502045322e+01 3.084293272934640395e+00 2.033238772502045322e+01 -4.328887056729792704e+01 -5.296231272385587552e+00 3.084293272934640395e+00 -5.296231272385587552e+00 -4.870281887816081223e+01
-6.373567874957893054e+01 2.088172787911057426e+01 2.026876615962657979e+01 2.088172787911057426e+01 -4.939198286973088159e+01 1.825250452325705197e+01 2.026876615962657979e+01 1.825250452325705197e+01 -5.234223214738660346e+01
-5.118298279539720852e+01 2.413721779598895267e+01 7.070104790227294878e+00 2.413721779598895267e+01 -2.097016513413055705e+01 2.357203456002365272e+01 7.070104790227294878e+00 2.357203456002365272e+01 -7.265574916660179383e+01
-8.441846617575420453e+01 2.648010614961730980e+01 -1.088246606984525222e+01 2.648010614961730980e+01 -6.099492330812648078e+01 -1.049155015536873670e+01 -1.088246606984525222e+01 -1.049155015536873670e+01 -3.343405414105712481e+01
-4.113899101766634914e+01 1.988016287763452183e+01 -3.255422534604615947e+01 1.988016287763452183e+01 -3.753608467108360713e+01 1.137457767939533326e+01 -3.255422534604615947e+01 1.137457767939533326e+01 -3.538022640862488544e+01
-6.760824320076160632e+01 2.473721631728282944e+01 -3.277157322049494059e+00 2.473721631728282944e+01 -5.533919075491148476e+01 2.827719144941461238e+01 -3.277157322049494059e+00 2.827719144941461238e+01 -3.356766559169282260e+01
-5.924219899798700339e+01 3.771370603887425954e+00 -1.654685903404996949e+01 3.771370603887425954e+00 -2.659223115816294580e+01 3.110419786699087918e+00 -1.654685903404996949e+01 3.110419786699087918e+00 -2.489816271785448976e+01
-5.073271931265731638e+01 -5.364103786259644124e+00 -3.628874114935536710e+01 -5.364103786259644124e+00 -5.325753633317471269e+01 -4.720853000700333091e+00 -3.628874114935536710e+01 -4.720853000700333091e+00 -4.236348858671758677e+01
-2.917436236260253057e+00 3.972689205766627651e+01 -8.299139101287081877e-01 3.972689205766627651e+01 -2.278781434415114049e+01 2.141282067841565162e+00 -8.299139101287081877e-01 2.141282067841565162e+00 1.103495905411035771e+01
-2.810009534651555185e+01 4.769458624377077882e+01 -6.079076822330326202e+00 4.769458624377077882e+01 -3.291320584277683992e+01 5.678140608019733193e+00 -6.079076822330326202e+00 5.678140608019733193e+00 -4.443541506418726783e+01
-4.195505632285041031e+01 1.495320374020563747e+01 2.309762515492641111e+00 1.495320374020563747e+01 -8.886052371524586135e+01 8.803890918011681777e+00 2.309762515492641111e+00 8.803890918011681777e+00 -4.955819768949495341e+01
-7.713464581730921310e+00 2.056172170058772064e+00 -1.924965713718205862e+01 2.056172170058772064e+00 -5.113636242724167857e+01 3.283044500981322500e+01 -1.924965713718205862e+01 3.283044500981322500e+01 -1.607907723196479211e+01
-6.185340673104793296e+01 2.831782840930116762e+01 -2.302981426587533420e+01 2.831782840930116762e+01 -5.244732813210485034e+01 2.284024939092098805e+00 -2.302981426587533420e+01 2.284024939092098805e+00 2.347210823756787246e+00
-3.821526940045427523e+01 5.911915174462977873e+00 1.175632513803978596e-01 5.911915174462977873e+00 -2.724339678104763252e+01 -2.148408550808323625e+01 1.175632513803978596e-01 -2.148408550808323625e+01 2.736798396908510345e+00
-1.523570998943403865e+01 1.047326094424840370e+01 -5.863913875220181815e+00 1.047326094424840370e+01 1.329204057206493594e+00 8.399878023339518052e+00 -5.863913875220181815e+00 8.399878023339518052e+00 -4.426297429778858117e+01
-6.827316533388221842e+01 4.795792876062870391e+01 1.694921994600452342e+00 4.795792876062870391e+01 -7.897637274772402805e+01 4.030586005622531331e+01 1.694921994600452342e+00 4.030586005622531331e+01 -8.664748801862663186e+01
-8.985519013670639765e+01 1.591774716604049367e+01 -2.497606851660835758e+01 1.591774716604049367e+01 -5.616189993842333195e+01 1.650716248970702793e+01 -2.497606851660835758e+01 1.650716248970702793e+01 -3.611246576358178828e+01
-3.968115472308897296e+01 2.675926974122212698e+01 5.926096558501172673e-01 2.675926974122212698e+01 -3.957568907529243774e+01 1.045608773825284743e+01 5.926096558501172673e-01 1.045608773825284743e+01 -5.539066198234297644e+01
-3.057085632467823544e+01 1.498671707083366300e+01 -3.466874961730447513e+00 1.498671707083366300e+01 8.924659236650933636e+00 1.830567801035779496e+01 -3.466874961730447513e+00 1.830567801035779496e+01 -7.964209349524706738e+01
-1.230879350803331107e+01 1.466277313267155691e+01 -7.854890582970088353e+00 1.466277313267155691e+01 -2.831133293907978654e+01 2.362216066049964525e+01 -7.854890582970088353e+00 2.362216066049964525e+01 -4.116380175568837529e+01
-4.376110680569166078e+01 -7.927927634964810899e+00 1.954733671142188101e+01 -7.927927634964810899e+00 -9.690463321621520265e+01 -4.091944475012792459e+00 1.954733671142188101e+01 -4.091944475012792459e+00 -5.600315943719837719e+01
-1.186118167806722994e+02 2.529530117725989058e+01 4.300993519825599520e+01 2.529530117725989058e+01 -1.979746563641812784e+01 -2.288372723699679412e+01 4.300993519825599520e+01 -2.288372723699679412e+01 -3.626158541164831206e+01
-5.959895777072340906e+01 -2.495475805305573225e+00 5.010839680768314963e+01 -2.495475805305573225e+00 -2.167881443281745035e+01 6.132955291749199844e+00 5.010839680768314963e+01 6.132955291749199844e+00 -7.593554800513886960e+01
-7.805814778719304847e+00 1.682031154965188335e+01 -1.726570330131749031e+01 1.682031154965188335e+01 -1.825398257653204581e+01 1.851194761604567773e+01 -1.726570330131749031e+01 1.851194761604567773e+01 -3.482230762939971669e+01
-8.892293623586807882e+01 2.278937909845694776e+01 2.269513822124946145e+01 2.278937909845694776e+01 -5.932719120694206083e+01 3.541610782547154201e+01 2.269513822124946145e+01 3.541610782547154201e+01 -7.849584690702791079e+01
-6.018029378915394290e+01 1.955479511261388836e+01 2.206899901227845007e+01 1.955479511261388836e+01 -8.072746969683437612e+01 6.018260682082487989e+00 2.206899901227845007e+01 6.018260682082487989e+00 -4.522336801276788520e+01
-3.767738635899706878e+01 -1.231291487032466492e+01 1.459950870839128445e+00 -1.231291487032466492e+01 -2.301762165700957041e+01 2.552185724974764724e+01 1.459950870839128445e+00 2.552185724974764724e+01 1.479746751438592023e+00
-2.979838528515652740e+01 2.516651066300501682e+01 3.508057160888050419e+00 2.516651066300501682e+01 -5.737357414876601780e+00 9.063517428045791746e+00 3.508057160888050419e+00 9.063517428045791746e+00 -2.471443783050079546e+01
-2.844227613315812420e+01 -3.585513723334051495e+00 1.912708724246901326e+01 -3.585513723334051495e+00 -4.733392759345185397e+01 1.214414974615599974e+01 1.912708724246901326e+01 1.214414974615599974e+01 -3.659822888940118446e+01
-7.409462495437742291e+01 1.688121640443882043e+01 5.558297537919427711e+00 1.688121640443882043e+01 -8.421945876570802625e+01 3.952399949625677866e+00 5.558297537919427711e+00 3.952399949625677866e+00 -7.051155318783631287e+01
-8.404796846569860236e+01 2.513434459938176602e+01 9.416554884505826450e+00 2.513434459938176602e+01 -4.348704322276770284e+01 -2.675585922162458719e+00 9.416554884505826450e+00 -2.675585922162458719e+00 -6.095601433383235701e+01
-6.317037902369972358e+01 7.853376236119800069e+00 1.975820430967443286e+01 7.853376236119800069e+00 -7.451431523000375989e+01 -7.627605445309719734e+00 1.975820430967443286e+01 -7.627605445309719734e+00 -5.602961685864339358e+01
-6.014081798249982569e+01 2.998970405062367206e+01 -4.137379802620391445e+01 2.998970405062367206e+01 -5.024831589445350488e+01 6.260891719229308983e+00 -4.137379802620391445e+01 6.260891719229308983e+00 -4.440329947997343396e+01
-4.748668221701695558e+01 1.403494708324047302e+01 7.016411978906883284e+00 1.403494708324047302e+01 -3.168385222806304924e+01 -2.032361285714137367e+01 7.016411978906883284e+00 -2.032361285714137367e+01 -2.348664179270469177e+01
-6.425982237765067850e+01 3.184787881523626041e+01 -2.189988849089025535e+01 3.184787881523626041e+01 -1.917364861135884979e+01 4.147739912145132379e+00 -2.189988849089025535e+01 4.147739912145132379e+00 -5.412360819307220083e+01
-6.490585442005242101e+01 1.841325781759027436e+01 -1.063945221310113531e+01 1.841325781759027436e+01 -3.521042100415021281e+01 4.342538279218157982e+01 -1.063945221310113531e+01 4.342538279218157982e+01 7.610457317391334797e+00
1.721975309523858755e+01 2.944152699024553144e+01 -9.624336593206299639e+00 2.944152699024553144e+01 -7.944590081869786324e+00 9.535927932138372753e+00 -9.624336593206299639e+00 9.535927932138372753e+00 -5.402175335185987137e+00
-5.038148599580397757e+01 -1.443896622748925118e+01 -2.311002153672987092e+01 -1.443896622748925118e+01 -7.671807248442081573e+01 -1.447874971069517258e+01 -2.311002153672987092e+01 -1.447874971069517258e+01 -3.554486214651173981e+01
-4.871131500596523978e+01 1.039047885269241256e+01 -7.669248088752856241e+00 1.039047885269241256e+01 -4.655828346140755514e+01 -6.373876931531661683e+00 -7.669248088752856241e+00 -6.373876931531661683e+00 -1.745031481868086587e+01
-5.105591916557530396e+01 2.973215112509421942e+01 5.541995533299426846e+00 2.973215112509421942e+01 -7.104076077341453299e+01 7.831583109307298507e+00 5.541995533299426846e+00 7.831583109307298507e+00 -7.740115299748788402e+01
-4.605562182217323652e+01 2.030912608245629158e+01 -7.679032131184857057e+00 2.030912608245629158e+01 9.868635514865845337e+00 -1.431730639643216563e+01 -7.679032131184857057e+00 -1.431730639643216563e+01 -3.191203997743046372e+01
-8.782439684996808182e+01 4.755679222478078061e-01 1.090764352891864775e+01 4.755679222478078061e-01 -7.672965076735363255e+01 3.127361214241634002e+01 1.090764352891864775e+01 3.127361214241634002e+01 -9.109776271967582773e+01
-3.334402492496194270e+01 1.829213049701933613e+01 -2.747965253020105081e+01 1.829213049701933613e+01 -2.936620784710570575e+01 1.085765589007952059e+01 -2.747965253020105081e+01 1.085765589007952059e+01 -3.975970012537418086e+01
-1.020005378902515076e+02 -2.105703815724049854e-01 -7.274595802215296558e+00 -2.105703815724049854e-01 -1.120966182184100717e+02 -2.923639414944035408e+01 -7.274595802215296558e+00 -2.923639414944035408e+01 -7.886916329388766655e+01
-2.269863182542932023e+01 2.787101798739019642e+01 1.926233604193196891e+00 2.787101798739019642e+01 -1.501549548948166724e+01 -8.829048708265730738e+00 1.926233604193196891e+00 -8.829048708265730738e+00 -2.324577610448487164e+01
-6.340182296755764391e+00 1.078092374848278112e+01 -1.152361418510345281e+01 1.078092374848278112e+01 -8.642621376828937230e+01 -2.422101627186938089e+01 -1.152361418510345281e+01 -2.422101627186938089e+01 -3.534227548574310873e+01
-1.189294432550937408e+01 3.687190223769449382e+00 -3.618732513263437145e+00 3.687190223769449382e+00 -6.354856626957347743e+01 1.180629615396608401e+01 -3.618732513263437145e+00 1.180629615396608401e+01 -4.847409334151114280e+01
-4.803989317895555189e+01 5.981807634300074783e-01 -1.256973135221228333e+01 5.981807634300074783e-01 -6.307943254272638356e+00 4.542955170067378923e+00 -1.256973135221228333e+01 4.542955170067378923e+00 6.833834690046532323e+00
-9.456890424005260343e+01 -2.158945004233312925e+00 -3.980262431993206462e+01 -2.158945004233312925e+00 -1.398614833110798372e+01 1.680339674959689944e+01 -3.980262431993206462e+01 1.680339674959689944e+01 -4.491165522904518781e+01
-6.016955635256584856e+01 4.059185734157247794e+01 1.133666721976329406e+01 4.059185734157247794e+01 -4.674562240188748063e+01 5.154811757704587549e+00 1.133666721976329406e+01 5.154811757704587549e+00 -4.249885948494665655e+01
-7.515159496249069093e+01 1.194256092042288486e+01 1.343458846287084008e+01 1.194256092042288486e+01 -1.058753944537721310e+02 5.968070299048765515e-01 1.343458846287084008e+01 5.968070299048765515e-01 -5.044184783739159883e+01
-3.825922384564784551e+01 1.616014058323581182e+01 -2.144784302706559842e+01 1.616014058323581182e+01 -3.888911226547843825e+01 1.034115339618694129e+01 -2.144784302706559842e+01 1.034115339618694129e+01 -4.284202119419965982e+01
-9.643739674454862154e+01 5.022647476370013919e+01 -5.334849514083490618e+01 5.022647476370013919e+01 -8.165854172240233311e+01 -9.078329423558129108e+00 -5.334849514083490618e+01 -9.078329423558129108e+00 -7.401696056023071435e+01
-5.632889007739461817e+01 6.424601015010175109e-01 1.478567777307160647e+01 6.424601015010175109e-01 -6.133797208015794666e+01 4.176393441485584646e+01 1.478567777307160647e+01 4.176393441485584646e+01 -2.614210767266811075e+01
-8.384342230598339540e+01 -4.356880317957053661e-01 -7.232693126211928281e+00 -4.356880317957053661e-01 -2.670251309533268369e+01 2.589110441490817038e+01 -7.232693126211928281e+00 2.589110441490817038e+01 -4.711260853489564226e+01
-4.552649495480760322e+01 2.198254805916737809e+01 -3.057923497423932702e+01 2.198254805916737809e+01 -3.585656044944119003e+01 5.025308926051146763e+00 -3.057923497423932702e+01 5.025308926051146763e+00 -2.825904601503355806e+01
-3.115786033136300048e+01 -4.677876628318334618e+00 1.434418817337647312e+01 -4.677876628318334618e+00 -4.498577222805568709e+01 2.503544069158645868e+01 1.434418817337647312e+01 2.503544069158645868e+01 -4.670307932745729573e+01
-2.225551897769708276e+01 2.406147853752124277e+01 -1.272881558533816815e+01 2.406147853752124277e+01 -5.255431607749856937e+01 1.633120501049471329e+01 -1.272881558533816815e+01 1.633120501049471329e+01 -9.069450037785914631e+00
-4.276186665450971702e+01 1.562106651762563914e+01 2.928910839886508244e-01 1.562106651762563914e+01 1.318453846049039768e+01 2.888682879869845266e+01 2.928910839886508244e-01 2.888682879869845266e+01 -1.179487507974688931e+01
-8.635341241087785136e+01 1.050924975797569338e+01 -2.558981850516854806e+01 1.050924975797569338e+01 -1.264058449868197620e+01 1.692458181968697417e+01 -2.558981850516854806e+01 1.692458181968697417e+01 -6.214781334356558062e+01
-7.830214491770847474e+01 2.056188078971617728e+01 -1.614267564974255009e+01 2.056188078971617728e+01 -6.265708963569753109e+01 1.852433749654677797e+01 -1.614267564974255009e+01 1.852433749654677797e+01 -7.079096220917212179e+01
-5.793210532318326500e+01 -6.398838201989184959e+00 9.671253683185717875e+00 -6.398838201989184959e+00 -5.080654976525455879e+01 -2.570089058923118230e+00 9.671253683185717875e+00 -2.570089058923118230e+00 -8.043581089688561292e+01
-4.499474518495193820e+01 4.460978312241657306e+00 1.349700696931134702e+00 4.460978312241657306e+00 -1.861002406974859369e+01 3.115035884739427630e+01 1.349700696931134702e+00 3.115035884739427630e+01 -6.628602648913371809e+01
-4.909689528542920556e+01 -1.126140366956503325e+00 9.837737318152383281e+00 -1.126140366956503325e+00 -5.260266325015379607e+01 8.460000153621788144e+00 9.837737318152383281e+00 8.460000153621788144e+00 -6.770983716447759093e+01
-9.070159114813067447e+01 -2.433944204232153741e+00 -2.493043769628628326e+01 -2.433944204232153741e+00 -5.866401696787269060e+01 -2.435194397689380175e+00 -2.493043769628628326e+01 -2.435194397689380175e+00 -7.101996098776866972e+01
-7.175653768503283914e+01 -1.307955205943202870e+01 -9.329272687582641499e-01 -1.307955205943202870e+01 -7.546702727469079264e+01 1.421979644838821777e+00 -9.329272687582641499e-01 1.421979644838821777e+00 -1.780183662389138988e+01
-5.090674351454961055e+00 3.087948571633619110e+01 1.506286579145081284e+01 3.087948571633619110e+01 -3.152266416983193054e+01 1.959081223403080330e+01 1.506286579145081284e+01 1.959081223403080330e+01 -1.300373455727123506e+01
-6.885882888589696904e+01 -1.303403170967440738e+00 1.310277059922370135e+01 -1.303403170967440738e+00 -4.938941303114039982e+01 -1.248865492010360612e+01 1.310277059922370135e+01 -1.248865492010360612e+01 -6.858267605144095569e+01
-2.350983320205826033e+01 1.168744235075568483e+01 -3.448755780127115145e-01 1.168744235075568483e+01 -1.679061894088564699e+01 2.095740973103658789e+01 -3.448755780127115145e-01 2.095740973103658789e+01 -1.703774182060030995e+01
-4.921865475211129848e+01 1.102385964086173731e+00 1.260740701137206443e+01 1.102385964086173731e+00 -5.113760378473038770e+01 -6.981182627506360427e-01 1.260740701137206443e+01 -6.981182627506360427e-01 -1.989446913357157598e+01
-3.139382386446382966e+01 4.688855209663394419e+00 1.297986371760098123e+01 4.688855209663394419e+00 -7.790310268038818720e+01 1.078930951958227347e+01 1.297986371760098123e+01 1.078930951958227347e+01 -7.903355190121004625e+01
-5.047200754435289838e+01 -1.334525122929069596e+01 -2.231206915240198541e+01 -1.334525122929069596e+01 -7.194581496740616444e+01 -3.471395676828223920e+00 -2.231206915240198541e+01 -3.471395676828223920e+00 -9.259335104811832196e+01
-5.068751806559973971e+01 2.060979925657348488e+01 -8.082642405323126056e+00 2.060979925657348488e+01 -4.704453904152985189e+01 1.586874533053553904e+01 -8.082642405323126056e+00 1.586874533053553904e+01 -4.469568650008555721e+01
-5.671640919487605714e+01 4.006250061005992791e+00 -2.721611550371142219e+00 4.006250061005992791e+00 -5.745394440228790955e+01 2.647360850340371741e+01 -2.721611550371142219e+00 2.647360850340371741e+01 -2.102145797994402443e+01
-2.532443534045960831e+01 1.344045003870387589e+01 7.004879430851419286e+00 1.344045003870387589e+01 -1.331602192962319897e+01 -9.222908408913774281e+00 7.004879430851419286e+00 -9.222908408913774281e+00 -8.793397506942841346e+01
-4.275538302368147470e+01 2.430250393523381014e+00 -2.886396579147574926e+01 2.430250393523381014e+00 -2.385884592944326954e+01 1.129722005547656316e+01 -2.886396579147574926e+01 1.129722005547656316e+01 -8.955752684989374757e+01
-3.807565240270217544e+01 4.870377549548595475e+00 -1.525396898592251560e+01 4.870377549548595475e+00 -5.332979918611118109e+01 -3.895425667361410493e+00 -1.525396898592251560e+01 -3.895425667361410493e+00 -1.936767493414060937e+01
-4.728346938376560615e+01 4.341518787968115412e+00 -2.453531721097483853e+01 4.341518787968115412e+00 -3.364865097177037256e+01 5.537211526348444046e+00 -2.453531721097483853e+01 5.537211526348444046e+00 -4.255842380963763105e+01
-7.680095095977289787e+00 1.431300803725421034e+01 2.084699462794631941e+01 1.431300803725421034e+01 -3.468610286284229005e+01 -4.678889528686946964e-01 2.084699462794631941e+01 -4.678889528686946964e-01 -4.694362269406666854e+01
2.386311343151033171e+01 1.026568112943237665e+01 8.568132115233158264e-02 1.026568112943237665e+01 -1.086177361531046337e+01 4.258036181088413752e-01 8.568132115233158264e-02 4.258036181088413752e-01 -4.458455018522412416e+01
-8.265947683246315592e+01 1.619537482695284325e+01 -2.594440598325297032e+01 1.619537482695284325e+01 -2.225146889051559640e+01 1.372184744689017677e+01 -2.594440598325297032e+01 1.372184744689017677e+01 -4.472564744976490658e+01
-2.861978968299596815e+01 -2.794033581401538235e+00 -2.128683148672251590e+01 -2.794033581401538235e+00 -6.283552114435580194e+01 2.031497186517784215e+01 -2.128683148672251590e+01 2.031497186517784215e+01 -4.725100492938648955e+01
-1.501149004986142188e+01 2.159490512243464000e+00 -1.986015075106006833e+01 2.159490512243464000e+00 -3.111059781555226067e+01 -5.139084227968989893e+00 -1.986015075106006833e+01 -5.139084227968989893e+00 -3.984425854655759736e+01
-4.281162677616993761e+01 2.376547014239778211e-01 -2.394838976119920915e+00 2.376547014239778211e-01 -1.380414435345902291e+01 4.422229537289910084e-01 -2.394838976119920915e+00 4.422229537289910084e-01 -1.807891448366148524e+01
-2.115256546305366570e+01 2.179013536173862420e+01 -3.202708638086330328e+00 2.179013536173862420e+01 -2.179329268984702583e+00 2.172265868935114419e+00 -3.202708638086330328e+00 2.172265868935114419e+00 -3.021261721714654058e+01
-7.661349744574958720e+01 2.963968417512392506e+01 -1.093446107744211737e+01 2.963968417512392506e+01 -2.838710670782325707e+01 2.478174542655234625e+00 -1.093446107744211737e+01 2.478174542655234625e+00 -1.022017592864911784e+01
-3.582430930047077311e+01 2.781799542899896949e+01 4.367162428063351420e+00 2.781799542899896949e+01 -5.242630822440926863e+01 1.181979731027459835e+01 4.367162428063351420e+00 1.181979731027459835e+01 -3.812292701432136255e+01
-4.264172870075623933e+01 3.002757448267511897e+00 -8.932179810649092389e+00 3.002757448267511897e+00 -6.327776081020971333e+01 -1.759700038285150647e+00 -8.932179810649092389e+00 -1.759700038285150647e+00 -4.562193325605515071e+01
-5.666182638098765523e+01 -8.923847339949873003e+00 7.554282067845024429e+00 -8.923847339949873003e+00 -1.708576741704820634e+01 -6.059835932375910339e+00 7.554282067845024429e+00 -6.059835932375910339e+00 -6.791749459006695133e+01
-3.426300182104433389e+01 3.683039195242641028e+01 1.450808451052346548e+01 3.683039195242641028e+01 -7.742146259879982040e+01 3.696871879690247908e+01 1.450808451052346548e+01 3.696871879690247908e+01 -7.097949465833217175e+01
-8.437905948462177719e+01 2.677457867784754697e+01 -1.872665492887766447e+01 2.677457867784754697e+01 -6.236803516888355148e+01 9.066194881723282251e+00 -1.872665492887766447e+01 9.066194881723282251e+00 -8.388672769279122576e+01
-3.768601115424473846e+01 -9.707448866316367386e+00 4.218229208094289362e+01 -9.707448866316367386e+00 -5.300341738634764255e+01 1.197165934530823961e+01 4.218229208094289362e+01 1.197165934530823961e+01 -5.092202975018641276e+00
-5.143896791982859185e+01 2.131367500056880715e+01 6.986394678001305314e-01 2.131367500056880715e+01 -2.446780671360638948e+01 8.798488320168470267e+00 6.986394678001305314e-01 8.798488320168470267e+00 1.137066458522516754e+01
-2.130471227725052685e+01 6.470520016497949278e+00 1.897015465373062204e+00 6.470520016497949278e+00 -3.502951559398220382e+01 3.562207763543520644e-01 1.897015465373062204e+00 3.562207763543520644e-01 -3.688977719042177483e+01
-1.524197507690212205e+01 7.408631399620319691e+00 1.146034579167932677e+01 7.408631399620319691e+00 -5.840114511592596358e+01 4.506800040964547449e+00 1.146034579167932677e+01 4.506800040964547449e+00 3.689623854227522060e+01
-6.486606715162483994e+00 -1.168671074332748994e+01 -3.433493442905968607e+01 -1.168671074332748994e+01 -4.583444386014909355e+01 1.472646702737431212e+01 -3.433493442905968607e+01 1.472646702737431212e+01 -1.192652960969395970e+01
2.603826622636339749e+01 -4.920348099416208321e+00 1.614861212422723113e+01 -4.920348099416208321e+00 -2.300043099795341917e+01 3.156789868153360956e+01 1.614861212422723113e+01 3.156789868153360956e+01 -5.716477999221496020e+01
-5.925571232456402271e+01 4.337005112289313402e+00 -1.425958821831976664e+01 4.337005112289313402e+00 -1.066652603088381994e+02 1.384973811007573730e+01 -1.425958821831976664e+01 1.384973811007573730e+01 -7.772827238803240846e+01
-1.074752246837059459e+02 1.766265045857800331e+01 -3.989043774528008157e+01 1.766265045857800331e+01 -6.309923617332340484e+01 1.182404609421014996e+01 -3.989043774528008157e+01 1.182404609421014996e+01 -8.482756766810663862e+01
-8.290738728243761102e+01 6.035129333235217608e+00 -1.282617066009064644e+01 6.035129333235217608e+00 -7.096232061689831028e+01 5.907735028653872789e+00 -1.282617066009064644e+01 5.907735028653872789e+00 -4.131612144382327756e+01
-5.345478464912751093e+01 2.732970968975724446e+01 -1.209911300986609639e+01 2.732970968975724446e+01 -4.902454916132922591e+01 1.260281561053007948e+01 -1.209911300986609639e+01 1.260281561053007948e+01 -3.568893132248895483e+00
-4.002541751586271346e+01 1.011528585397917546e+01 -1.307611737202796443e+00 1.011528585397917546e+01 -4.352788241408180880e+01 -2.568611714857626893e+01 -1.307611737202796443e+00 -2.568611714857626893e+01 -4.279682860887538709e+01