1.166972799999999921e+01 6.898098000000000063e+00 3.753328000000000220e+00 1.226872799999999941e+01 2.472128000000000103e+00 1.063827999999999996e+00 8.635398000000000351e+00 7.777777999999999636e+00 6.216417999999999999e+00 1.545542799999999950e+01 1.038202800000000003e+01 1.029172800000000088e+01 1.991427999999999976e+00 3.483837999999999990e+00 3.985888000000000098e+00 9.889127999999999474e+00 4.994347999999999566e+00 1.349372800000000083e+01 2.594088000000000171e+00 1.203462799999999966e+01 1.415782800000000030e+01 5.690337999999999674e+00 7.475947999999999816e+00 9.751848000000000738e+00 2.085078000000000209e+00 1.238262800000000041e+01 1.202212800000000037e+01 2.383598000000000106e+00 1.012558000000000069e+00 1.018902800000000042e+01 1.509648000000000101e+00 1.135822800000000043e+01 6.193247999999999642e+00 2.983557999999999932e+00 4.832817999999999614e+00 5.658298000000000272e+00 1.222972799999999971e+01 9.529057999999999140e+00 4.496228000000000335e+00 2.015228000000000019e+00 1.584538000000000002e+00 1.263322800000000079e+01 1.069692799999999977e+01 1.420897999999999994e+00 1.333642799999999973e+01 4.818138000000000254e+00 1.830928000000000111e+00 1.561702799999999947e+01 6.787218000000000195e+00 5.103997999999999813e+00 9.745908000000000015e+00 5.664177999999999713e+00 9.714828000000000685e+00 6.044717999999999591e+00 1.382232800000000061e+01 6.522908000000000150e+00 1.187642800000000065e+01 8.933968000000000131e+00 1.122352799999999995e+01 1.301192799999999927e+01 9.547688000000000841e+00 1.432232800000000061e+01 1.863728000000000051e+00 3.207647999999999833e+00 6.371547999999999767e+00 1.321742799999999995e+01 5.022038000000000224e+00 7.805827999999999989e+00 1.383182799999999979e+01 3.432408000000000126e+00 7.426677999999999891e+00 1.101902800000000049e+01 1.601688000000000001e+00 1.083442800000000084e+01 8.624997999999999720e+00 1.557522799999999918e+01 1.462282800000000016e+01 1.249702800000000025e+01 1.072778000000000009e+00 1.324692800000000048e+01 1.843067999999999929e+00 1.315042799999999978e+01 1.181672799999999945e+01 4.241217999999999932e+00 1.422842799999999919e+01 1.279682799999999965e+01 8.754027999999999921e+00 1.560132800000000053e+01 5.137307999999999986e+00 1.121982799999999969e+01 6.488597999999999644e+00 1.193427999999999933e+00 3.624767999999999990e+00 5.026667999999999914e+00 1.064122799999999991e+01 3.198998000000000008e+00 9.819518000000000413e+00 6.612458000000000169e+00 2.615867999999999860e+00 1.475292800000000071e+01 1.258192799999999956e+01 1.143762800000000013e+01 1.052812800000000060e+01 5.842877999999999794e+00 7.401148000000000060e+00 1.808637999999999968e+00 6.078077999999999648e+00 1.483332799999999985e+01 6.777968000000000437e+00 1.467292800000000064e+01 4.913547999999999583e+00 1.393512800000000063e+01 7.480757999999999797e+00 3.192318000000000211e+00 1.449462800000000051e+01 1.228022799999999926e+01 2.147288000000000086e+00 4.070438000000000223e+00 1.550692800000000027e+01 1.758037999999999990e+00 1.494672800000000024e+01 2.965599999999999833e-02 1.456712800000000030e+01 6.700047999999999782e+00 8.117568000000000339e+00 7.439028000000000418e+00 1.505942800000000048e+01 2.601458000000000048e+00 1.569828000000000001e+00 1.163272800000000018e+01 5.678697999999999801e+00 1.155012800000000084e+01 1.208882799999999946e+01 2.426300000000000123e-01 2.408598000000000017e+00 6.432798000000000016e+00 8.689327999999999719e+00 2.382537999999999823e+00 1.498862800000000028e+01 5.369547999999999988e+00 8.559438000000000102e+00 6.870998000000000161e+00 3.887017999999999862e+00 7.419027999999999956e+00 8.475398000000000209e+00 4.812348000000000070e+00 1.964817999999999953e+00 3.127177999999999791e+00 9.613607999999999265e+00 1.021422800000000031e+01 5.583128000000000313e+00 4.500168000000000390e+00 5.191977999999999760e+00 8.158557999999999311e+00 8.905217999999999634e+00 4.087177999999999756e+00 2.633367999999999931e+00 2.935668000000000166e+00 8.184618000000000393e+00 6.097947999999999702e+00 1.285492799999999924e+01 3.606507999999999825e+00 1.508382800000000046e+01 6.686799999999999689e-02 5.040977999999999959e+00 5.047930000000000472e-01 1.807328000000000046e+00 3.790668000000000148e+00 8.296737999999999502e+00 6.566118000000000343e+00 1.450862799999999986e+01 1.256592799999999954e+01 1.542512800000000084e+01 1.437092799999999926e+01 4.961248000000000324e+00 1.546032800000000051e+01 6.974027999999999672e+00 1.076472799999999985e+01 4.366138000000000297e+00 9.763557999999999737e+00 8.723497999999999308e+00 3.784478000000000009e+00 1.071022800000000075e+01 2.703587999999999880e+00 9.424179999999999779e-01 1.477792799999999929e+01 7.762857999999999592e+00 9.454999999999999516e-02 1.493757999999999919e+00 1.047522799999999954e+01 1.203932799999999936e+01 1.804848000000000008e+00 3.651377999999999791e+00 9.940927999999999543e+00 4.913528000000000340e+00 8.134228000000000236e+00 1.937557999999999891e+00 1.271342800000000040e+01 1.886158000000000001e+00 1.000312800000000024e+01 1.279242799999999924e+01 1.730510000000000104e-01 1.374822799999999923e+01 6.676097999999999644e+00 6.704149999999999832e-01 1.547702800000000067e+01 6.475950000000000317e-01 9.878527999999999309e+00 1.108052799999999927e+01 8.943808000000000646e+00 9.629597999999999658e+00 9.765038000000000551e+00 1.118792799999999943e+01 1.200298000000000087e+00 1.446432800000000007e+01 1.051822800000000058e+01 5.929097999999999757e+00 1.328232799999999969e+01 7.756587999999999816e+00 7.118108000000000324e+00 1.328907999999999978e+00 8.024867999999999668e+00 3.205578000000000038e+00 1.425397999999999943e+00 3.725378000000000078e+00 1.024202799999999947e+01 1.319202800000000053e+01 3.864917999999999854e+00 1.037432800000000022e+01 9.745608000000000715e+00 6.771519999999999762e-01 3.178008000000000166e+00 1.200908000000000087e+00 6.498268000000000377e+00 8.258148000000000266e+00 1.005352800000000002e+01 1.480352800000000002e+01 1.197242800000000074e+01 1.326752800000000043e+01 5.840188000000000379e+00 8.821697999999999595e+00 8.513968000000000202e+00 1.318232800000000005e+01 1.667478000000000016e+00 4.924138000000000126e+00 7.720308000000000170e+00 3.324577999999999811e+00 1.332852800000000038e+01 5.553979999999999473e-01 1.307682800000000078e+01 6.503618000000000343e+00 7.252197999999999922e+00 6.179007999999999612e+00 1.202322799999999958e+01 1.244562799999999925e+01 6.265918000000000099e+00 1.322412800000000033e+01 1.025552799999999998e+01 1.300202799999999925e+01 1.401612800000000014e+01 1.180728000000000000e+00 6.585058000000000078e+00 1.108168000000000042e+00 1.465132799999999946e+01 1.059932799999999986e+01 1.353477999999999959e+00 6.250128000000000128e+00 1.374932800000000022e+01 6.833817999999999948e+00 1.013538000000000050e+00 9.257887999999999451e+00 5.540650000000000297e-01 7.961418000000000106e+00 1.031652799999999992e+01 4.046307999999999794e+00 2.660379999999999967e-01 6.589237999999999928e+00 3.771738000000000035e+00 3.218728000000000034e+00 8.917818000000000467e+00 1.522032800000000030e+01 5.782648000000000010e+00 1.249332799999999999e+01 9.098579999999999446e-01 4.770188000000000095e+00 7.479058000000000206e+00 1.202192800000000084e+01 8.691138000000000474e+00 1.157692800000000055e+01 7.449008000000000074e+00 9.565879999999999939e-01 6.451497999999999955e+00 7.495198000000000249e+00 1.338100000000000123e-01 4.567497999999999614e+00 9.868627999999999290e+00 1.226252799999999965e+01 1.225982800000000061e+01 1.229772799999999933e+01 8.107768000000000086e+00 1.321957999999999966e+00 4.010898000000000074e+00 1.286882800000000060e+01 1.385492799999999924e+01 8.224648000000000181e+00 5.359458000000000055e+00 4.527799999999999880e-02 4.904058000000000028e+00 7.465330000000000021e-01 1.219882800000000067e+01 2.127708000000000155e+00 1.137362800000000007e+01 7.297507999999999662e+00 1.121462799999999937e+01 4.218458000000000041e+00 1.563422800000000024e+01 8.468087999999999838e+00 1.183732799999999941e+01 1.483612800000000043e+01 1.342722799999999950e+01 1.253762799999999977e+01 1.617288000000000059e+00 1.322502800000000001e+01 1.094332799999999928e+01 1.505782800000000066e+01 8.252600000000000213e-02 1.749779999999999947e-01 3.666907999999999834e+00 1.273972799999999950e+01 1.512862800000000085e+01 1.356082800000000077e+01 1.154802800000000040e+01 8.205237999999999587e+00 4.441168000000000227e+00 9.235958000000000112e+00 5.659817999999999572e+00 2.269967999999999986e+00 4.300197999999999965e+00 8.659017999999999660e+00 6.144047999999999732e+00 4.668350000000000000e-01 7.397677999999999976e+00 9.980527999999999622e+00 1.078362800000000021e+01 1.222772800000000082e+01 1.272062799999999960e+01 2.213668000000000191e+00 1.021182800000000057e+01 1.187462799999999952e+01 5.825887999999999955e+00 6.898337999999999859e+00 3.642018000000000200e+00 1.851167999999999925e+00 1.468152800000000013e+01 1.268792799999999943e+01 6.808588000000000306e+00 3.547199999999999798e-01 2.362467999999999790e+00 5.509328000000000003e+00 6.610447999999999880e+00 7.482108000000000203e+00 2.564547999999999828e+00 7.665688000000000279e+00 9.320038000000000267e+00 1.585747999999999935e+00 1.350822800000000079e+01 2.782048000000000076e+00 8.620117999999999725e+00 1.121112800000000043e+01 2.069987999999999939e+00 1.528932799999999936e+01 9.835167999999999466e+00 2.114717999999999876e+00 5.131067999999999962e+00 1.368442800000000048e+01 1.214642800000000022e+01 1.338372799999999962e+01 7.163348000000000049e+00 6.458139999999999992e-01 1.451222800000000035e+01 1.591318000000000010e+00 6.554978000000000193e+00 4.559548000000000378e+00 6.233538000000000245e+00 1.060722799999999921e+01 1.324012800000000034e+01 5.252448000000000228e+00 7.751858000000000359e+00 9.357478000000000407e+00 1.383072800000000058e+01 7.800037999999999805e+00 1.309942799999999963e+01 9.613047999999999149e+00 1.057452800000000082e+01 1.196272800000000025e+01 3.173547999999999814e+00 1.066842800000000047e+01 6.101437999999999917e+00 3.861788000000000221e+00 2.765798000000000201e+00 1.009112799999999943e+01 9.005368000000000706e+00 1.543582800000000077e+01 1.483622800000000019e+01 6.055488000000000426e+00 6.031918000000000113e+00 8.027357999999999549e+00 1.461262800000000084e+01 1.153532799999999980e+01 8.368767999999999319e+00 3.503757999999999928e+00 2.001907999999999799e+00 1.090092800000000040e+01 1.182572799999999980e+01 5.703027999999999764e+00 4.690558000000000227e+00 3.688187999999999800e+00 1.146522799999999975e+01 3.299960000000000115e-01 1.362452799999999975e+01 9.246608000000000160e+00 7.462907999999999653e+00 1.401872799999999941e+01 5.659387999999999863e+00 2.484107999999999983e+00 1.495092799999999933e+01 6.636998000000000175e+00 1.212962800000000030e+01 7.616018000000000399e+00 4.624938000000000216e+00 6.569247999999999976e+00 1.364742799999999967e+01 2.317838000000000065e+00 7.210797999999999597e+00 1.419172799999999945e+01 4.635787999999999798e+00 8.747977999999999810e+00 1.298872800000000005e+01 3.320960000000000023e-01 3.637798000000000087e+00 1.153078000000000047e+00 5.848837999999999759e+00 6.122927999999999926e+00 1.020422800000000052e+01 1.458722799999999964e+01 5.450388000000000233e+00 1.197552800000000062e+01 1.467252799999999979e+01 7.910067999999999877e+00 4.376138000000000083e+00 1.513432800000000000e+01 1.104182800000000064e+01 1.151152800000000020e+01 1.740990000000000038e-01 1.238712800000000058e+01 2.468017999999999823e+00 1.771517999999999926e+00 1.163752799999999965e+01 7.478577999999999726e+00 5.336250000000000160e-01 1.238772799999999918e+01 5.711587999999999887e+00 1.267727999999999966e+00 5.641128000000000142e+00 4.642709999999999892e-01 6.800627999999999673e+00 4.547240000000000171e-01 2.455538000000000221e+00 1.174452800000000074e+01 1.558967999999999909e+00 5.665087999999999901e+00 9.178779999999999717e-01 2.762188000000000088e+00 4.748508000000000173e+00 1.045792800000000078e+01 7.092407999999999824e+00 1.385477999999999987e+00 6.064038000000000039e+00 7.886738000000000248e+00 8.536637999999999948e+00 1.888697999999999988e+00 5.585259999999999669e-01 2.953370000000000162e-01 6.580108000000000068e+00 4.415828000000000308e+00 8.646988000000000341e+00 1.606657999999999920e+00 2.762598000000000109e+00 1.352672800000000031e+01 2.109878000000000142e+00 1.272822799999999965e+01 1.185457999999999901e+00 5.909087999999999674e+00 1.408332799999999985e+01 3.966428000000000065e+00 3.072487999999999886e+00 6.279887999999999693e+00 1.174892799999999937e+01 2.401447999999999805e+00 4.849768000000000079e+00 4.204138000000000375e+00 1.392782799999999988e+01 5.895897999999999861e+00 8.409048000000000300e+00 1.125162800000000018e+01 3.383237999999999968e+00 9.752880000000000438e-01 7.397268000000000399e+00 7.471078000000000330e+00 6.568637999999999977e+00 2.374908000000000019e+00 1.060362800000000050e+01 5.257658000000000165e+00 1.304222799999999971e+01 6.475098000000000020e+00 3.923357999999999901e+00 8.576268000000000669e+00 5.303358000000000239e+00 1.381612800000000085e+01 6.607957999999999998e+00 9.431608000000000658e+00 6.876458000000000403e+00 1.357532800000000073e+01 2.811857999999999969e+00 1.395307999999999993e+00 6.290117999999999654e+00 5.172120000000000051e-01 4.821288000000000018e+00 3.301180000000000225e-01 5.112727999999999717e+00 7.694898000000000238e+00 9.673068000000000666e+00 6.800469999999999571e-01 5.306957999999999842e+00 8.295488000000000639e+00 1.030932800000000071e+01 3.628378000000000103e+00 4.301318000000000197e+00 4.618958000000000119e+00 5.786398000000000152e+00 1.385352800000000073e+01 1.293722799999999928e+01 1.118208000000000091e+00 1.064767999999999937e+00 4.680647999999999698e+00 1.171192800000000034e+01 9.292198000000000846e+00 1.507242800000000038e+01 7.176237999999999673e+00 4.279798000000000435e+00 1.021422800000000031e+01 1.101672800000000052e+01 1.139752799999999944e+01 8.874147999999999925e+00 7.764529999999999488e-01 8.112028000000000461e+00 1.437262800000000063e+01 5.261388000000000176e+00 1.224422799999999967e+01 1.074802799999999969e+01 4.247317999999999927e+00 1.285032799999999931e+01 1.471242799999999917e+01 2.258567999999999909e+00 1.026382800000000017e+01 1.558148000000000089e+00 7.593037999999999954e+00 1.107082800000000056e+01 1.181782800000000044e+01 8.925748000000000459e+00 4.416468000000000060e+00 7.680977999999999639e+00 1.013882800000000017e+01 1.358622800000000019e+01 3.735720000000000152e-01 5.122588000000000363e+00 3.848647999999999847e+00 1.353977999999999904e+00 4.965577999999999825e+00 8.184307999999999694e+00 3.058197999999999972e+00 1.196162799999999926e+01 9.074237999999999360e+00 1.560692799999999991e+01 1.502658000000000049e+00 1.521142799999999973e+01 1.338032800000000044e+01 7.840667999999999971e+00 1.477142800000000022e+01 7.582367999999999775e+00 1.191692800000000041e+01 1.292132800000000081e+01 1.291522800000000082e+01 4.947898000000000351e+00 5.210487999999999786e+00 1.408472800000000014e+01 6.726708000000000354e+00 2.740828000000000042e+00 2.005478000000000094e+00 9.248148000000000479e+00 7.759298000000000251e+00 1.187972800000000007e+01 1.232192799999999977e+01 1.542562799999999967e+01 1.704668000000000072e+00 2.618437999999999821e+00 2.203127999999999975e+00 1.734737999999999891e+00 1.125052799999999920e+01 8.152898000000000422e+00 5.321379999999999999e-01 8.813518000000000185e+00 2.260159999999999947e-01 1.538482800000000061e+01 1.363222799999999957e+01 2.350248000000000115e+00 1.291062800000000088e+01 1.322122799999999998e+01 1.076942799999999956e+01 5.517357999999999763e+00 1.256582799999999978e+01 6.922028000000000070e+00 1.143437999999999954e+00 1.327982800000000019e+01 9.756928000000000267e+00 1.322602799999999945e+01 1.018968000000000096e+00 1.404112800000000050e+01 1.311212800000000023e+01 1.011692799999999970e+01 8.702927999999999997e+00 5.904188000000000436e+00 2.522537999999999947e+00 1.037192800000000048e+01 5.032738000000000156e+00 8.587348000000000425e+00 1.453452799999999989e+01 5.469497999999999749e+00 5.370239999999999458e-01 7.572157999999999944e+00 8.001497999999999777e+00 3.186987999999999932e+00 9.697388000000000119e+00 6.723817999999999628e+00 6.814767999999999937e+00 8.378529999999999589e-01 9.145238000000000866e+00 1.256932800000000050e+01 2.882588000000000150e+00 2.714557999999999804e+00 3.255907999999999802e+00 9.038937999999999917e+00 9.701138000000000261e+00 2.887580000000000147e-01 1.133972799999999914e+01 2.364917999999999854e+00 1.220772799999999947e+01 6.014287999999999634e+00 9.904427999999999344e+00 2.577017999999999809e+00 1.193132800000000060e+01 1.143758000000000052e+00 1.247617999999999894e+00 1.174632800000000010e+01 4.834597999999999729e+00 1.042872799999999955e+01 7.731378000000000306e+00 6.830727999999999689e+00 1.561352800000000052e+01 1.068912800000000018e+01 1.091902800000000084e+01 1.139477999999999991e+00 9.418658000000000641e+00 8.626668000000000447e+00 1.194702799999999954e+01 4.140217999999999954e+00 1.427632799999999946e+01 1.219257999999999953e+00 1.276642799999999944e+01 9.075858000000000203e+00 5.646238000000000312e+00 7.615478000000000414e+00 3.650917999999999886e+00 2.185238000000000014e+00 8.909268000000000853e+00 8.663498000000000587e+00 5.281147999999999954e+00 7.337127999999999872e+00 1.220522799999999997e+01 3.400187999999999988e+00 4.588627999999999929e+00 7.908960000000000434e-01 9.527480000000000393e-01 1.379342800000000047e+01 1.179692799999999941e+01 3.070777999999999786e+00 1.378742800000000024e+01 2.627550000000000163e-01 1.376092799999999983e+01 1.251252799999999965e+01 6.634328000000000003e+00 1.184982800000000047e+01 3.615127999999999897e+00 3.811500000000000304e-02 7.090118000000000364e+00 1.530042800000000014e+01 5.138507999999999853e+00 9.932228000000000279e+00 6.562508000000000230e+00 1.062602799999999981e+01 5.224377999999999744e+00 7.711007999999999640e+00 4.853918000000000177e+00 1.067972800000000078e+01 3.432338000000000111e+00 2.522889999999999855e-01 3.034418000000000060e+00 1.263602799999999959e+01 1.446082799999999935e+01 1.531582799999999978e+01 2.603117999999999821e+00 2.335528000000000048e+00 6.771918000000000326e+00 1.233692800000000034e+01 9.697580000000000089e-01 3.484538000000000135e+00 1.399522799999999911e+01 7.544438000000000422e+00 6.555857999999999741e+00 7.127308000000000199e+00 1.469340000000000090e-01 1.565372799999999920e+01 1.619160000000000044e-01 1.109292800000000057e+01 9.090927999999999898e+00 1.537692799999999949e+01 9.083907999999999205e+00 1.056722800000000007e+01 5.025239999999999707e-01 4.695750000000000202e-01 4.225158000000000413e+00 5.532928000000000068e+00 1.380602799999999952e+01 9.141118000000000521e+00 1.064712800000000037e+01 4.275318000000000396e+00 1.444032799999999916e+01 2.562387999999999888e+00 5.741690000000000405e-01 1.322342800000000018e+01 8.619528000000000745e+00 1.102792799999999929e+01 8.429968000000000572e+00 6.403787999999999592e+00 2.482578000000000173e+00 3.744587999999999806e+00 5.609318000000000026e+00 1.265922800000000059e+01 1.121952800000000039e+01 3.859897999999999829e+00 1.008442800000000084e+01 3.674587999999999965e+00 5.630799999999999694e-02 1.511872800000000083e+01 1.108652799999999949e+01 2.447328000000000170e+00 1.063522799999999968e+01 1.401452800000000032e+01 9.903328000000000131e+00 9.676738000000000284e+00 9.908727999999999980e+00 9.035057999999999367e+00 1.131092800000000054e+01 1.458312800000000031e+01 4.975138000000000282e+00 1.199592799999999926e+01 3.144368000000000052e+00 9.080868000000000606e+00 4.473588000000000342e+00 8.530879999999999574e-01 1.423112800000000000e+01 7.843887999999999749e+00 1.705467999999999984e+00 9.762957999999999359e+00 3.394838000000000022e+00 9.991927999999999699e+00 5.808478000000000030e+00 8.181067999999999785e+00 1.174398000000000053e+00 9.515397999999999357e+00 1.425522800000000068e+01 3.375847999999999960e+00 5.230307999999999957e+00 1.138302799999999948e+01 1.303402799999999928e+01