-7.783014158873783890e+04
-7.782877436838623544e+04
-7.779688936969486531e+04
-7.786317303350144357e+04
-7.785333535482478328e+04
-7.787132704296258453e+04
-7.785802084273495711e+04
-7.785655859553496703e+04
-7.786056950414415041e+04
-7.785196117124348530e+04
-7.782766001598081493e+04
-7.780674361345295620e+04
-7.783758072538745182e+04
-7.781448834234311653e+04
-7.784884993526148901e+04
-7.782895960189899779e+04
-7.785649643048994767e+04
-7.786054377172005479e+04
-7.785298946175712626e+04
-7.785646979979681782e+04
-7.783807343043667788e+04
-7.780607134472171310e+04
-7.785663591130478017e+04
-7.783500950978930632e+04
-7.784011073883781501e+04
-7.786067486855074822e+04
-7.780320891112383106e+04
-7.782385443360873614e+04
-7.782677337224846997e+04
-7.783797148503099743e+04
-7.783394278648076579e+04
-7.786068838250053523e+04
-7.783592239168562810e+04
-7.784178183274324692e+04
-7.785552971004342544e+04
-7.784714688413844851e+04
-7.785875994631505455e+04
-7.782540987066733942e+04
-7.785778970738156931e+04
-7.784829072722943965e+04
-7.781277102185897820e+04
-7.781373856510740006e+04
-7.782714797003335843e+04
-7.782559839501646638e+04
-7.785941818321988103e+04
-7.785324693983963516e+04
-7.783208224953967147e+04
-7.782150048038661771e+04
-7.781110336383603862e+04
-7.784993613825320790e+04
-7.784602335375729308e+04
-7.785920594291982707e+04
-7.787022431543933635e+04
-7.785105073841525882e+04
-7.783689753843797371e+04
-7.784998735698415840e+04
-7.782825878924452991e+04
-7.781821044155657000e+04
-7.785280474745675747e+04
-7.786441396114027884e+04
-7.785061808494717116e+04
-7.780315207911851758e+04
-7.781553870923827344e+04
-7.784486151263157080e+04
-7.783414688314164232e+04
-7.785530062505637761e+04
-7.779483539797754202e+04
-7.786723653887056571e+04
-7.784341943626370630e+04
-7.786232535617286339e+04
-7.783927888142148731e+04
-7.781042842415402993e+04
-7.785464064235515252e+04
-7.785503440052972292e+04
-7.781318774275283795e+04
-7.786057259150159371e+04
-7.784618224915036990e+04
-7.786187767589441501e+04
-7.781897362196363974e+04
-7.783046003013018344e+04
-7.785213972470552835e+04
-7.784974127864213369e+04
-7.781605385521137214e+04
-7.784501834181864979e+04
-7.779421669602558541e+04
-7.785160986431235506e+04
-7.783229851186623273e+04
-7.785924385592911858e+04
-7.785458539779152488e+04
-7.784722036532619677e+04
-7.783515558112818690e+04
-7.785293011785783165e+04
-7.781469177193373616e+04
-7.783720681929386046e+04
-7.782395522739073203e+04
-7.783799707907224365e+04
-7.785607954184140544e+04
-7.782732511092517234e+04
-7.784995569045282900e+04
-7.783696432443021331e+04
-7.785519787407352123e+04
-7.783219981088950590e+04
-7.783740181395768013e+04
-7.786052160047198413e+04
-7.782798922739301634e+04
-7.786368160310265375e+04
-7.785906231277112965e+04
-7.780235259980866977e+04
-7.784923649108344398e+04
-7.781084068911412032e+04
-7.778371119610489404e+04
-7.782587538342326297e+04
-7.781433627227914985e+04
-7.785693332768567780e+04
-7.779463269984620274e+04
-7.782012448331971245e+04
-7.784006142589452793e+04
-7.783109258642567147e+04
-7.784695727446043747e+04
-7.786270396383592742e+04
-7.779811729426980310e+04
-7.783049542549489706e+04
-7.780884527658698789e+04
-7.782267619350658788e+04
-7.784215797682556149e+04
-7.782879977097071242e+04
-7.780943334917323955e+04
-7.780297699315729551e+04
-7.783357185688961181e+04
-7.782071975950121123e+04
-7.784393113360901771e+04
-7.780460284981352743e+04
-7.781875325051283289e+04
-7.785608675173290248e+04
-7.783959744817393948e+04
-7.780453803761285963e+04
-7.782597534912280389e+04
-7.784986713714027428e+04
-7.785739164002134930e+04
-7.779217848726992088e+04
-7.785590134834933269e+04
-7.785296068112744251e+04
-7.783714286501119204e+04
-7.783242565122959786e+04
-7.786023327136806620e+04
-7.783291976764562423e+04
-7.782065155226686329e+04
-7.785707645184591820e+04
-7.784330003010897781e+04
-7.784380856986957951e+04
-7.780821774441763409e+04
-7.785677824967484048e+04
-7.786511068741226336e+04
-7.783396300551389868e+04
-7.785450982251204550e+04
-7.782625156487638014e+04
-7.784833367344024009e+04
-7.783985432072899130e+04
-7.783534864106091845e+04
-7.786367279152137053e+04
-7.784618949041170708e+04
-7.782229773679704522e+04
-7.784459827211411903e+04
-7.785797923935692233e+04
-7.779818509852391435e+04
-7.781714442594077263e+04
-7.785352898460968572e+04
-7.784557731274927210e+04
-7.782009688645979622e+04
-7.784475912865823193e+04
-7.782202552051514795e+04
-7.779645270638987131e+04
