4.836736012672179896e+00 4.221530110695537630e+00 1.201299714672237284e+00 9.174015654594904756e-01 -8.687655455990318520e-01 2.136476860416943957e+00 3.312753054393176910e+00 -4.035853252569321370e+00 7.143193659338867851e-01 -3.463553923694925318e-01 1.028145672638530295e+00 1.186907192206288375e+00 1.186204252543887172e+00 1.718772320982699719e+00 1.433598390275865109e+00 1.128247468732669567e+00 3.091751807014097575e-01 1.998672918669837317e+00 4.540631293081903053e+00 -2.635221549752528425e+00 3.411920511521270960e+00 -2.305993819618050722e+00 -6.573773966243146027e+00 -4.890238616998597923e-04 -1.848108076657805521e+00 -1.254380143824674887e+00 -3.617809841710408314e+00 -1.056354790414693268e+00 -1.332143165365748727e+00 -3.545234792557021120e+00 2.826923017304271424e-01 2.725537726405923067e+00 -3.789279811034265588e+00 -3.483289713192339043e-01 1.835315294711044709e+00 -4.347339855203792069e+00 -1.910232619037979029e+00 -5.291533860480472029e+00 -7.923266422954732269e-01 -3.874138563666397039e-03 2.720872202223795888e+00 -5.553948384122284754e-01 -4.358369888677463555e-01 6.881712446221749380e-02 -2.836465924586527798e+00 -6.967645920064136966e+00 -4.179588729799822211e+00 1.704836426475940803e+00 -1.255149932174795424e+00 2.706088872045027127e+00 2.506362990863603368e+00 1.810556083441868802e+00 2.396060085023510311e+00 -3.124985889224047408e+00 3.169625900220920833e+00 2.201011555099733119e+00 3.054496519127499754e-01 -1.734730645403302463e+00 3.307485892021576834e+00 1.470216558746431534e+00 -1.217662730763878987e+00 -7.458812025095060694e-01 1.309530311193034313e+00 -1.025944808150543341e+00 1.215031463571115411e-01 -6.108931331774027917e-01 1.081889446461412191e-01 -1.057979213526270224e+00 -1.665298513014068504e-01 -8.496751030484457345e-01 -1.488734673686006094e+00 1.990288550567822057e+00 -1.959465134881162918e+00 1.883786249734904716e+00 -1.399044817814472985e+00 -1.719216607645695172e+00 1.432490244721750239e+00 -1.943932585179263928e+00 -1.054383268347650615e+00 -1.069373315237674538e+00 -6.777952998468018686e-01 -1.653819050670653601e+00 -8.770265007391034873e-01 -1.957694673097952753e+00 3.223890065366663560e+00 -1.635314305468622553e+00 -5.786319564841053698e-01 -8.851722704480283754e-01 -8.843207210106203142e-01 -3.324659319896645204e+00 1.125761725990863882e+00 -3.508011386352257510e+00 6.723892978930157138e-01 -8.394117726008457625e-01 1.829890266592292536e-01 -1.426013121102432057e+00 3.306527384683818127e+00 -2.010690770059729182e+00 -7.861230840751292082e-01 -1.123680160699422448e+00 -2.413264880359739184e+00 -2.281134849537970410e+00 1.696675230146773128e+00 -1.004890042622361840e-01 2.128774348929665550e+00 -5.678389787414994672e-01 -1.236785569216975134e+00 2.421028069886640710e-01 -5.051529073844841511e-01 4.444386666269163122e+00 -2.564027183110880515e+00 8.452625754383021883e-01 -4.379159830558142508e-01 2.025170195819713470e+00 3.714739924682607164e+00 3.232173646216425222e+00 -1.161135480428503453e+00 -1.706262360407059031e+00 2.150873496648291194e+00 1.315942643007332435e+00 -2.718347892931383125e+00 6.941310622426810628e-02 -6.140142984070133814e+00 -1.251964849315311712e+00 4.176030322730460043e+00 -4.000122628983396322e-01 -2.082367989914979844e+00 2.691877355256595106e+00 1.729446513749435699e+00 -7.157776957675153762e-01 -2.016987916442880113e+00 5.918073186128895991e-01 3.300695093790653623e+00 3.394729085922585821e+00 -3.260552971035934444e+00 1.599162020929391748e+00 -2.926399006837224093e+00 -1.617045073335633631e+00 8.345359835848080721e+00 -3.494118172161503999e+00 4.233243543445970758e+00 -1.537339840305978755e-01 -1.391722315405844235e+00 6.589259721863641728e-01 -2.573372115433353091e+00 -7.220529363499212927e+00 -2.593502312188310732e+00 2.483015315346651875e+00 -2.509499736979659557e-01 4.219422320149682548e+00 -2.008923393600567930e+00 1.044745230240563094e+00 -6.190291326935071226e-02 1.466911662469728039e+00 3.846285800817844880e+00 -1.253294623980249822e+00 -1.298791840841953205e+00 -2.213892268781877615e+00 2.821142662699258175e+00 -1.682195804386789062e+00 -3.954469603257239285e+00 -3.412515979062647364e+00 -7.835524949219876412e-01 -9.535430513645514194e-01 7.213040253591961326e-01 -1.661959678172830746e+00 -1.401769158949369043e+00 7.206926169769025670e-01 4.856333476808082139e+00 -2.744892478383337941e+00 -4.485966035809844321e+00 7.048782743452333133e-01 1.276846445105081607e+00 -1.322900562957553872e+00 2.200962189914955847e+00 -1.230582010996631226e+00 1.767444336290391771e+00 -3.534445414359137949e+00 -1.298396919363735136e-01 -4.940903751641672059e+00 -4.269013247803177258e+00 -4.326925294415690515e-01 3.248914614504017084e+00 -2.482792657794479663e+00 -6.707432775130985902e-01 -1.028954027539258131e+00 -5.011677999992039112e+00 3.207792901363874183e+00 -2.216772418781226772e+00 -2.746472164296210217e+00 9.230775332675272837e-03 -1.411166541780667583e+00 -6.939603409786597510e+00 2.879211032396898684e+00 1.880023182836986884e+00 3.952752620424204721e-01 -6.121468031824756073e-01 3.186192547699769229e+00 -2.538780490642028820e+00 7.385355601705129169e-01 2.409314122915533485e+00 -2.442954953679220775e+00 -5.349809975330718004e+00 -1.246936799557476716e+00 2.431543368464874622e+00 4.095870518624315504e-01 6.079893290270147466e-01 8.913819993164693312e-01 -1.735914895617282294e+00 1.997966379462712716e+00 1.933078415176361142e+00 1.052421516473428964e+00 2.640040825916409872e+00 6.885209146810139513e-02 2.569051633323992334e+00 1.849278957134241397e+00 -3.598564104516043471e+00 3.810423536739181216e+00 2.003124012830587830e+00 5.812467686152765767e-01 -3.655183400352201684e+00 -3.067624572954205653e-01 3.123097156685641806e+00 -7.815043539744056522e-01 9.697512870330892154e-01 5.731138544232209364e-01 -1.616665578477658238e+00 1.756682211788271664e+00 -1.986817561013169975e+00 -1.112293772298139638e+00 -6.549351055295264956e-01 3.404002027350592208e+00 -1.293253684174752838e+00 -4.978546761917042041e+00 7.276652950604899139e+00 4.383983220487420951e+00 3.440252528038703073e+00 -3.510845256490877198e+00 -1.397234761039306550e+00 -1.805843250957663404e+00 3.769525509592559498e-01 -1.200988096943330863e+00 1.335222318766231098e+00 -2.545610883864908747e+00 3.706301049189067776e+00 -4.145213077691898285e+00 -1.443995932319578124e+00 2.788700994549118684e-01 4.087344739836740182e+00 3.021441385712368088e+00 -6.390220325283025860e-01 -5.336988397026171116e-01 3.561688825708095418e+00 -5.251607196188479154e-01 -3.095218682803352106e+00 1.742642444705210458e+00 1.310050188295220019e+00 -5.413710121700848532e+00 1.937922888153305712e+00 -1.284148378686719827e+00 -6.476841312167572084e+00 2.806430809194281117e+00 1.316960285722688639e-01 9.148649148708832834e-01 -3.285771381367673882e+00 -2.066374184267818492e+00 -3.514595467871926143e-02 5.830939521231611522e+00 -4.754584631892676327e+00 -1.835832600709856655e+00 6.780405831086638857e-01 -5.749120841228679835e-01 -9.996172238233392848e-01 -1.484849736488169647e+00 9.675504225451024842e-01 -2.617723648631684163e+00 1.516891340953343104e+00 -3.489306609307743834e+00 -2.019882464621122864e+00 5.615890378162918140e+00 4.589096591678340609e+00 4.535368758696375124e+00 -8.455870486840778577e-01 1.520427122313015245e+00 5.992830587825979105e-01 5.830856217482299542e+00 1.281696574509448627e+00 2.621353018154163328e-01 2.732971814700975610e+00 6.224531739005532138e+00 -4.226034683806464187e+00 1.558728849272756678e+00 1.464638292866599523e+00 -9.001191228013719625e-01 2.297663444686885548e+00 2.130010021211121707e+00 1.475012694979948469e+00 -6.829534474353521345e-01 -2.276191646191471296e+00 -1.455882143216730984e-01 3.868150978129453854e+00 1.080890315690347325e+00 2.014215752785231572e+00 -2.188898572885009663e+00 -1.042704288382427569e+00 5.198704687389509083e+00 2.211710944679532442e+00 1.677409952566767393e+00 -1.049345962617669770e+00 4.120140706031791389e+00 -2.470429250111146335e-01 -7.170617047923991016e+00 3.227285978702800318e+00 -6.982814915748979168e+00 5.774045117334454247e-01 1.121130140373271411e+00 4.818255435841862777e+00 -3.172310646363859732e+00 7.774471528505235707e-01 -9.161340114961988856e-01 -2.471205723330039683e-01 9.440140280405132645e-01 -2.579373070707840832e+00 1.147460810024524269e+00 9.559017815996904144e-01 1.167968958975432292e+00 2.635852498520462994e+00 -1.432924761191925134e+00 -2.557764489512938777e+00 -3.886555450299905345e+00 -3.614755370902314358e+00 4.687624358287028947e+00 6.598011757748112327e-01 3.264361289353231221e+00 -1.651145103161884231e+00 4.261878435940836596e+00 3.661363304421506371e+00 -5.908375498423536598e+00 1.291609206456860059e+00 -8.978740353353555914e-01 1.605360436942988134e+00 1.105367219809078261e+00 -1.493105035200818831e+00 4.698532007240107111e-01 -9.501486806904388960e-01 3.113606185691536812e-02 -7.484564196487204502e-01 2.092214287395346872e+00 2.516980619356115501e+00 2.004140627104594952e+00 3.651727837417792499e-01 7.266807167345207263e-01 1.471699571172449018e-02 3.161932130485113124e+00 -6.704330996020813060e+00 4.061160623077794685e-02 -1.213363331702183467e+00 -1.544110069709911937e+00 -4.490416615749921458e-01 1.616064968729534757e+00 -1.319187375465088463e+00 2.399362410196840045e+00 -1.513084565298070672e+00 8.260497483671225272e-01 -4.630104662049360220e-01 -5.763791557079676053e-01 -2.997238561213285468e+00 -9.801817391999871620e-02 -2.423434108423857758e+00 1.018832621997892707e+00 2.184989467315459510e+00 2.678472650706866659e-02 -5.503703881991166974e-02 -1.063408355410420558e+00 1.813311792037924919e+00 -2.698835789427491694e-01 -1.138212036968232033e+00 2.486931105784974338e+00 3.884371555094186246e-02 1.695692040216625562e+00 2.462206861521682166e-01 7.671072035223838181e-01 -1.538421246385005992e+00 -8.586127725965060353e-01 1.654259737788925655e+00 7.669693923815473768e-01 -8.297002009372669851e-02 4.752874848149089559e-01 -1.913862502781132902e+00 -3.939491383442735195e+00 -3.700560803796685061e+00 -3.244194068709691070e+00 7.879526812359368693e-01 -9.074688789057632210e-01 3.991844704561057888e+00 -1.304505860979922882e-01 -4.387384790250980160e+00 2.925812795267994024e-02 -2.943685049040066115e+00 -1.876783078365303892e+00 2.620031471020021763e-01 7.783002449499557551e-01 5.290045191627032461e-02 1.817609648437596315e+00 -1.303817319496414662e+00 1.150845924726490610e+00 -1.093027466276784432e-01 2.256734564299779144e+00 1.390244959407249681e+00 3.633673549526854063e-01 2.100309663478145072e+00 9.090614203355049661e-01 5.676103048074321755e+00 -3.425134954421337863e+00 9.867205693002767397e-01 5.785640793550366201e-01 3.481567588152557402e+00 -6.167881589928888575e-01 1.711892048354367313e-02 1.733173070979444841e+00 -4.491367923998232925e-01 2.218746511951643186e+00 -1.736057848964866590e+00 7.306267433485190033e+00 -6.151462523783697289e-01 -4.318990869404092936e-01 -9.528231424198827515e-01 2.327326778531279283e-01 -2.022378491776423148e-01 -3.336177863011342115e+00 -3.516273369933678783e+00 -3.710513544956728360e-01 4.407997325998866400e-01 -6.556174763649373904e-01 1.145678006945119787e+00 -1.270920566049109857e+00 3.930743461323662036e+00 -2.789438386996728969e+00 -1.861538492241272102e+00 -3.631437203812308834e+00 1.011587766911153041e+00 3.243407825297977887e+00 7.494149269864792962e-02 -1.084974770509991915e+00 -2.840860454473055352e+00 -2.361708601287300091e+00 3.719848707086380379e+00 1.141972532762775883e+00 1.600540132337757049e+00 -5.152220681052935625e+00 -2.006250474533148420e+00 6.624659701555692948e+00 -1.120880229125336136e+00 2.316492148914017501e-01 6.449355702880800803e-03 -9.549612719855482545e-01 1.316138561084417180e+00 -2.180361481242590216e+00 3.330554859932806089e+00 1.453064213919028402e+00 6.292374415289073708e-01 1.194353621797535236e+00 7.614883142092456758e-01 1.342656921281958349e+00 -3.327074100185333450e+00 2.041975441691651127e+00 -3.155283771381098834e-01 -1.076723071342065907e+00 1.311151134759888093e+00 1.966514586111492324e+00 1.072135708702502743e+00 7.554251382331120812e-01 1.048901675954674317e+00 -3.860532284612161469e+00 -6.628497844672126327e+00 -5.762897841546937627e+00 5.798763190949650870e+00 3.095860430205455982e-01 2.930939575395383745e-01 1.507545380189520889e+00 -5.866697398513299744e-01 -9.632993602268347111e-01 -2.247922364596361078e+00 -6.009501622101803830e-01 -2.004858993387239330e-01 -2.615139689740998641e+00 -1.868850710236405588e+00 7.097777689343776064e-01 -4.399073540409024652e+00 2.637116452939031408e+00 5.748359794630029107e-01 -6.370834205844451148e-01 6.029103714223780219e-01 7.606979570321346085e-01 2.259105121610437639e+00 1.180125135726835861e+00 2.343480506808292230e+00 3.119637994206510001e-01 -6.596355967175374646e-01 -2.920573400812831011e+00 2.620570374287173543e+00 -1.168975391680079134e+01 5.658763526921304354e+00 -4.611017819043498278e+00 8.555757852913541128e-02 4.634665799434510847e-01 -1.774323580477374651e-01 8.328976250929449598e-01 -4.648240711027586514e+00 -3.791493016818446860e-01 -8.417885005596016379e-01 1.075878206773429741e-01 2.136415153935972366e+00 -8.814847939893007966e-01 1.201827305084544717e+00 -3.829965465042208805e+00 -1.217321288235836185e+00 9.836393590170954271e-01 6.162343433261687764e-01 -6.321931819674465602e-01 -1.993828445692892526e+00 4.734269829915478844e+00 2.977041515770609159e+00 5.956886562660027723e-02 -8.495732873548424990e-01 2.227031121242754264e+00 -3.238676480869480567e+00 6.206823521628709317e-01 8.429619521394113302e-02 7.787203632412373344e-02 -1.850823161820555285e+00 -1.180694378013798840e+00 -4.679598401995324064e-01 1.352035277948290815e-01 -3.412373539935737998e-01 -3.162278715219903447e+00 2.471681377454195250e+00 2.748666858136100011e+00 -1.088144426749232618e+00 -6.103675996477947452e-01 -7.170509061582291954e-01 4.961720432997439034e-01 -1.327561459153608237e+00 1.512114745105467284e+00 -3.395746728637942802e+00 1.581627610140639240e+00 -9.166081229583307177e-01 -8.369368284932103830e-01 -5.567914617648854758e-01 -7.698911942555522470e-02 6.037002143788143815e-01 -2.080733282389907846e+00 2.456439362433537443e+00 -1.748932391998914371e+00 -1.537704936985060833e+00 -6.207778429421744626e+00 -2.297995117022108236e+00 -1.658842986663090491e+00 1.272567614870376562e-01 3.378107931052213075e+00 -5.174350682012046621e-01 -2.918813223443117000e+00 1.551843434437676361e+00 2.073833983596609087e+00 -1.318283375518854772e+00 -8.536207182859041342e-01 -9.125360094348804185e-02 3.043713311577714298e-01 -1.677392983284500261e-01 -1.981672268941488735e+00 -2.077271548807401169e-01 2.432337325186708643e+00 -1.367811054029352658e+00 8.922358113248463951e+00 -2.991876268016854468e+00 2.397225823293198665e+00 -2.918791626174776610e+00 -2.537787016298385656e-01 3.345565475649820542e+00 3.937783656581846370e-01 -9.399701966541750275e-01 -2.108229176090173684e+00 1.230393292008992834e+00 -1.747916806166256887e+00 -1.302320423112178771e-01 -9.946282548367861853e-01 2.160081646271276579e-01 2.314012062599634323e+00 -4.882589070240820561e+00 -4.062315562713313177e+00 2.735937839553010065e+00 1.778560758837423927e+00 1.041598713931686460e+00 6.646214803800419846e-01 2.396408212420324979e+00 -1.967327054777618711e+00 7.342855262935945593e-01 9.792664263989084850e-01 7.540459983833971425e-01 -3.965593739114392946e+00 -1.652261990467470243e+00 -8.208720603929311466e-01 1.408500821802694425e+00 3.783635724908063734e-03 2.750359672597420868e+00 -2.377499803988605276e+00 -1.553488940596918999e+00 7.424971162488890331e-01 4.844022005412901066e+00 -1.164036199254842918e+00 2.863630660172246767e+00 -9.132641459103452153e-01 1.591533557219278805e+00 -2.098211643125110992e+00 -1.349621526100951874e+00 -1.171176153323930880e+00 2.065607995462421353e+00 -1.555387443328144936e+00 -2.430469161475294015e+00 -6.462360343745563451e-01 -8.657743239339339425e-01 1.644418582515306371e+00 1.511212287821257494e+00 2.676570034210241922e-02 2.065735522189762641e+00 2.710374901369179135e-01 3.209066111754588224e+00 1.901635363576612114e+00 -1.099697422649138501e+00 1.041722641114304571e+00 -5.555125949467492052e-01 4.740440478012637904e+00 3.856091474864906665e+00 -6.248526818352010404e-01 1.501563451079999778e+00 -2.413484966808538079e+00 -2.170950728673747943e+00 2.808919123039460342e+00 1.640326414385540277e+00 -2.460365437285354950e+00 2.115871523758505290e+00 7.590154269843091273e-02 -2.423362117529391124e+00 2.214116983216749546e+00 -9.411395344685866693e-01 1.795760411966905279e+00 -6.445355066031143165e-01 4.330579346530558205e+00 -1.526177137898218072e+00 -8.463295833384358868e-01 -6.001587765917197892e-01 -1.995519203271514108e+00 -4.038138963468643539e+00 6.868651241082762704e-01 -5.008964971711987957e+00 -5.604881941957585711e-01 7.106017561436182461e+00 -1.182365595206779307e+00 1.755274275580769761e+00 1.167487134203179178e+00 -8.693203897071014596e-01 -2.637347338021999832e+00 3.914726001525462018e-01 2.467578924910934113e+00 2.103657240070853973e+00 3.384061578024621930e+00 -5.298533946526024607e+00 6.621167114732701142e-01 5.201131294753716716e+00 1.945145117530355794e+00 4.367777041701581986e+00 1.137562576256005986e+00 -2.183574846239185518e+00 -1.635154382838771125e+00 9.400997802642153678e-01 -1.148040850945656999e+00 -2.277977020374249317e+00 -2.385490279053751606e-01 7.548646376976201333e-01 -5.218990178788245338e-01 -1.539100531896368196e+00 -1.922894274712674711e+00 3.754979749365531472e+00 3.186675915134046466e+00 2.509633434355097448e-01 -2.078572527114552482e-01 -1.643092407395091659e+00 -1.726615214714188884e+00 5.318394177426731595e+00 -2.073646293050320222e-01 1.540222047188027021e+00 3.623259038200874027e+00 -1.278111942185673922e+00 -2.370156218532311065e+00 -2.596944505385175628e+00 3.509111818596250654e+00 -1.583891209550947421e+00 -2.488252138698441585e-01 2.952893712883726263e+00 6.970122406833796358e-01 2.030571569787426700e+00 -5.924588362078146986e-01 -4.474290655389345228e-01 2.122566162723248606e+00 -6.594365933164039739e-02 1.277703650969911786e+00 -2.196174795432910276e-01 -1.987805893150065062e+00 -2.655525553095555491e+00 2.038064279239402143e+00 -1.760191253672856115e+00 3.631323046822512168e+00 -1.456374252402479197e+00 -4.127685351771918087e-01 4.464273636644956467e-01 -1.020100175961184297e+00 -2.977830844506370589e+00 -5.489825065979305752e-01 -5.973742716378768192e-01 2.947298477721627563e+00 -1.131461862170614729e+00 3.864572516453776529e+00 4.213511867713954473e+00 -3.163969987019199515e+00 4.361002698532251975e-01 -2.891564669887411565e+00 -1.543365992393529451e+00 -4.290656796003963436e+00 2.794649499314779906e+00 -3.938626978488458108e-01 2.340422950676150027e+00 -7.607540070856837477e-01 4.118962626465909160e+00 -3.002146283333226418e+00 1.512955495908705039e+00 1.610281528800472595e+00 -4.413514913839076126e-01 -3.023084320768236744e+00 -1.829138475965788491e+00 -4.249200839425223974e-01 2.597990430237643977e+00 1.239604012735352478e+00 -1.665979855408129762e+00 -1.462762930065738098e+00 -1.091534683657946703e+00 -8.703801985177882505e-01 3.399254227860502908e+00 -9.842132292901310808e-02 -2.264272525171133310e+00 3.786441827130246907e+00 -1.249073386461118096e+00 2.333304593875402233e+00 3.064102161332077912e-01 -7.543612156570270733e-01 3.266286531559544848e+00 1.841593929149904219e-01 1.377225406142918551e+00 5.375966324173225841e-01 2.266249189444923484e+00 1.634697240658906869e+00 -1.419737571987621239e-01 -5.215580381493889917e+00 1.861599170280894278e+00 -1.402273609431311518e+00 2.366293907044163980e+00 -6.212834761316692322e-01 -5.100606295044247257e-02 8.962136167765449857e-01 2.534053774199605535e-01 2.722588156615481036e+00 -2.131593306668717602e+00 -2.778947771010884082e+00 -6.109702662786172800e-01 -5.785296265698275597e+00 1.774663994564068092e+00 2.578397079867139841e+00 1.113054818896789255e+00 5.200714261786485437e+00 -1.108417062631099403e+00 -4.693321409142731326e+00 4.821641578985180199e-01 -1.248394100949755531e-01 6.676021090992397156e+00 3.123854603739568137e-01 -6.222944339782537915e-02 1.540251871987163401e+00 2.479394173354969588e+00 -2.049948947474530048e+00 1.907405433768130765e+00 2.097469622691427116e+00 -9.490611039633146673e-01 -3.596909856605329914e+00 -1.361053680142288558e+00 -3.707968666837325067e+00 1.505121343928686795e+00