-3.171188000059659373e+01 -4.858200397203481735e+00 1.588896173153979685e+00 -4.858200397203481735e+00 -3.128371869636388425e+01 3.823475224367057113e+00 1.588896173153979685e+00 3.823475224367057113e+00 -5.678957674410420253e+01
-1.862935007891755923e+00 -1.980204905228321266e+01 -1.863533373166419693e+01 -1.980204905228321266e+01 -6.955777385264522650e+01 -3.613902706471887427e+01 -1.863533373166419693e+01 -3.613902706471887427e+01 -6.703733762725781276e+01
-8.226938443615206609e+01 1.507965928757844187e+00 5.823585259641074430e+00 1.507965928757844187e+00 -1.197611394973263685e+02 9.355209188833679690e+00 5.823585259641074430e+00 9.355209188833679690e+00 -4.936415129148948466e+01
-4.460227796215244211e+01 2.712755740397451731e+01 -1.387699390990708892e+01 2.712755740397451731e+01 -6.865409835318578757e+01 -1.234409218785438789e+01 -1.387699390990708892e+01 -1.234409218785438789e+01 -8.829480584664201714e+00
-6.595345994257563405e+01 4.324548511895283553e+00 -1.267167833838653479e+01 4.324548511895283553e+00 -6.487232786854278288e+01 5.991867946462552830e+00 -1.267167833838653479e+01 5.991867946462552830e+00 -6.577728966808331279e+01
-1.104213705007052795e+02 1.394794484383281663e+01 -4.144033509625923983e+00 1.394794484383281663e+01 -5.405952747468220565e+01 1.189593927439628551e+00 -4.144033509625923983e+00 1.189593927439628551e+00 -4.416432678741020368e+01
-1.778368613495424810e+01 -3.763767088468619448e+01 5.175029314781772527e+00 -3.763767088468619448e+01 -5.855422338647203162e+01 4.484144681967563884e+01 5.175029314781772527e+00 4.484144681967563884e+01 -2.846210708767084796e+01
3.824229584866935205e+00 -1.597594398931914839e+01 2.253794497286206955e+00 -1.597594398931914839e+01 -7.186598047937366118e+01 7.056118869454568454e+00 2.253794497286206955e+00 7.056118869454568454e+00 -8.823020444417380759e+00
-4.695037008063540185e+01 1.688385392349675129e+01 -3.848905349023155953e+00 1.688385392349675129e+01 -3.885233944253340610e+01 1.324837612172168555e+01 -3.848905349023155953e+00 1.324837612172168555e+01 5.785609982917403471e+00
-6.188815163247365092e+01 1.816045344995258048e+01 -2.027134298010200286e+00 1.816045344995258048e+01 -5.770009778957307134e+01 -1.930582427105414922e+01 -2.027134298010200286e+00 -1.930582427105414922e+01 -5.283821286271160034e+01
2.977180222201332782e+01 -9.130946107578740367e+00 -8.100710555736860385e+00 -9.130946107578740367e+00 -1.469391439548735967e+01 -1.311514934858212023e+01 -8.100710555736860385e+00 -1.311514934858212023e+01 -2.656897100891853469e+01
-8.602149224589855692e+01 -7.915426947859340423e+00 -9.246752396098031568e+00 -7.915426947859340423e+00 -9.782153905920949910e+01 -1.156239962067192817e+00 -9.246752396098031568e+00 -1.156239962067192817e+00 -8.199079365726511526e+01
-1.079812643650911070e+02 3.622876709781881033e+01 8.344736663559846335e+00 3.622876709781881033e+01 -7.182692509023080163e+01 1.378317600205333093e+01 8.344736663559846335e+00 1.378317600205333093e+01 -8.080606315917175664e+01
-9.516716211891764488e+01 -8.221504368943339358e+00 -2.179743341543088420e+01 -8.221504368943339358e+00 -6.988460379125517363e+01 -2.869193151921385621e+01 -2.179743341543088420e+01 -2.869193151921385621e+01 -5.587465338714733321e+01
-9.515641329754554789e+00 7.683023521706259906e+00 2.802321535091225968e+01 7.683023521706259906e+00 -4.927613472890943314e+01 -8.047738600051863145e+00 2.802321535091225968e+01 -8.047738600051863145e+00 -3.175375081200684590e+01
-6.722221242511139394e+01 -3.969305946707752497e+00 1.670246515591315983e+01 -3.969305946707752497e+00 -1.023794986889910348e+02 3.543339081643346322e+00 1.670246515591315983e+01 3.543339081643346322e+00 -9.804912059141811653e+01
-3.367314425687623469e+01 3.345522296924885897e+00 4.627667980085581334e+00 3.345522296924885897e+00 -7.421154094360052511e+01 -4.106434559661899186e+01 4.627667980085581334e+00 -4.106434559661899186e+01 -6.157828456057181654e+01
-1.740023604706715687e+01 -1.146583899683446361e+01 1.604750964789128531e+01 -1.146583899683446361e+01 1.726556523438451762e+01 -6.712981127440033724e+00 1.604750964789128531e+01 -6.712981127440033724e+00 -7.335409157413414505e+01
-8.933682835143164880e+01 -4.092013628982157591e+00 8.333703313941029478e+00 -4.092013628982157591e+00 -1.515864901551742321e+02 -7.141045101679607932e+00 8.333703313941029478e+00 -7.141045101679607932e+00 -8.965046105776754359e+01
-4.727254833204191442e+01 1.155239141198779684e+01 7.345611144396287706e+00 1.155239141198779684e+01 -6.603847609438547295e+01 1.318115980528346931e+01 7.345611144396287706e+00 1.318115980528346931e+01 -7.336549043432908945e+01
-1.018015335544117335e+02 6.492751915107979777e+00 -6.431690565709825336e+00 6.492751915107979777e+00 -4.002912368166104784e+01 -1.502519337652029741e+01 -6.431690565709825336e+00 -1.502519337652029741e+01 -2.316902208331043411e+01
-6.095286789847703801e+01 1.809771804991923716e+01 2.275921735440227422e+01 1.809771804991923716e+01 -1.129918022671147355e+02 3.206375357502916046e+01 2.275921735440227422e+01 3.206375357502916046e+01 -1.386262509930512365e+01
-5.246377197936205050e+01 5.736820866573916433e+00 2.333927480594654469e+01 5.736820866573916433e+00 -2.618831589578083197e+01 -6.982396470637069363e+00 2.333927480594654469e+01 -6.982396470637069363e+00 -2.962320306650026680e+01
-5.640846616369464606e+00 -8.762186230195961656e+00 1.089196271357005408e+01 -8.762186230195961656e+00 -1.335987951750296254e+01 -2.424310486102358553e+01 1.089196271357005408e+01 -2.424310486102358553e+01 1.700564120625362463e+01
-4.759709622471983437e+01 2.542399247129704776e+01 1.693360455714866264e+00 2.542399247129704776e+01 -9.318779856046865007e+01 2.007948874330298850e+01 1.693360455714866264e+00 2.007948874330298850e+01 -7.896276528923810645e+01
-2.210218781414180356e+01 1.013376938408159234e+01 -2.249580899563829561e+01 1.013376938408159234e+01 -3.700997498904455796e+01 -1.102096485935929460e+00 -2.249580899563829561e+01 -1.102096485935929460e+00 -3.362993399422705920e+01
-5.696159030093424036e+01 3.648740065481067063e+01 -3.720342194565682092e+01 3.648740065481067063e+01 -7.650116945933808665e+01 1.679743225868783441e+01 -3.720342194565682092e+01 1.679743225868783441e+01 -3.547238703511081326e+01
-1.219241620834609563e+02 5.214852778112236464e+00 -1.733983292971580426e+01 5.214852778112236464e+00 -7.032625573989157886e+01 7.801184033650592653e+00 -1.733983292971580426e+01 7.801184033650592653e+00 -7.641436251317054484e+01
-9.876761288562400409e+01 -1.736343868993945705e+01 -2.889043462498624848e+01 -1.736343868993945705e+01 -1.065108451522852420e+02 6.545860725086678045e+00 -2.889043462498624848e+01 6.545860725086678045e+00 -5.334362961136525172e+01
-5.877377244534920919e+01 -1.616546292433616472e+01 -1.461084977703326082e+01 -1.616546292433616472e+01 -8.915617150350257702e+01 -1.876197171838415301e+01 -1.461084977703326082e+01 -1.876197171838415301e+01 -8.388420987634889059e+01
-4.402977575845297054e+01 1.928972487425652815e+01 -3.960738850319373938e+01 1.928972487425652815e+01 -8.839471612755320962e+01 2.445898551932611298e+01 -3.960738850319373938e+01 2.445898551932611298e+01 -4.682945201719604711e+01
-3.822598789334191594e+01 1.971829020308234703e+01 5.500051401895667880e+00 1.971829020308234703e+01 -9.991206124075397099e+01 -2.562103747379898522e+01 5.500051401895667880e+00 -2.562103747379898522e+01 -4.150490182873780753e+01
-8.297164368814871693e+01 2.951729968346019106e+01 3.075266079774486627e+00 2.951729968346019106e+01 -9.420700717559181925e+00 3.420896069703982523e+00 3.075266079774486627e+00 3.420896069703982523e+00 -8.200172691925287438e+01
-7.617844253254017417e+01 -1.361498396566686964e+01 -1.268485493000576270e+01 -1.361498396566686964e+01 -2.757120747334247213e+01 -2.758187363403666126e+01 -1.268485493000576270e+01 -2.758187363403666126e+01 -3.705464497421989734e+01
-1.339562192412633124e+02 -8.540756746326113813e+00 -6.602086037434188981e+00 -8.540756746326113813e+00 -2.426536401294421452e+01 8.037532865399384718e+00 -6.602086037434188981e+00 8.037532865399384718e+00 -3.864675341939707920e+01
-2.752456244654327122e+01 -6.620914187651509408e+00 -2.131570819446185538e+01 -6.620914187651509408e+00 -4.075254350712885554e+01 2.074342085493445609e+01 -2.131570819446185538e+01 2.074342085493445609e+01 -4.876745487739863449e+01
-1.035243753262641206e+02 2.331801407228646816e+00 1.883458521236235939e+01 2.331801407228646816e+00 -5.132779035269666679e+01 -6.923402720998732107e+00 1.883458521236235939e+01 -6.923402720998732107e+00 -6.690430468253958907e+01
-2.963665408838599546e+01 -2.262741103328879078e+01 1.550202185512570274e+01 -2.262741103328879078e+01 -7.125538371819379790e+01 2.514797216070381225e+01 1.550202185512570274e+01 2.514797216070381225e+01 -5.610967932508317091e+01
-7.947427766781497382e+01 4.067709426536453776e+01 5.631467561717373727e+00 4.067709426536453776e+01 -5.347755975302369080e+01 2.186645915820983443e+00 5.631467561717373727e+00 2.186645915820983443e+00 -8.302655455114320660e+01
-4.363819726191409387e+01 -1.707043001575886620e+01 3.695323282723074243e+01 -1.707043001575886620e+01 -4.457589941297528924e+01 -3.157285723735574123e+01 3.695323282723074243e+01 -3.157285723735574123e+01 -2.623887763395383033e+01
-4.296929402236969509e+01 3.774054967522725690e+01 2.588040899975974529e+00 3.774054967522725690e+01 -8.614201456240178345e+01 3.395336114428435792e+01 2.588040899975974529e+00 3.395336114428435792e+01 -5.711613891083861461e+01
-5.532167142925164427e+01 -6.993135322129753639e+00 3.063385313767028961e+01 -6.993135322129753639e+00 -2.002211979952256726e+01 -4.702759691812985476e-01 3.063385313767028961e+01 -4.702759691812985476e-01 -1.624432762553665910e+01
-9.920260027007789461e+01 2.220038176571589261e+01 -2.037595783870127519e+01 2.220038176571589261e+01 -4.437812850309633461e+01 -2.319931375558542896e+01 -2.037595783870127519e+01 -2.319931375558542896e+01 -1.173650337449274446e+02
-2.438843624390321452e+01 -3.414694520853488768e+01 -1.195249020029556419e+01 -3.414694520853488768e+01 -6.703314970236368708e+01 -3.222995618743046720e+01 -1.195249020029556419e+01 -3.222995618743046720e+01 3.955242235488591973e+01
-6.290323900020026571e+01 -2.280714213047865613e+01 5.518184120231486300e-01 -2.280714213047865613e+01 -5.099829745779851464e+01 1.908591710696875277e+00 5.518184120231486300e-01 1.908591710696875277e+00 -7.143452501330183679e+01
-6.372176025050497827e+01 -2.267148522654556686e+00 4.035702296890368501e+01 -2.267148522654556686e+00 -3.868494207146507335e+01 -1.434618134373445386e+01 4.035702296890368501e+01 -1.434618134373445386e+01 -5.510672954871805018e+01
-8.613163142439532294e+01 -4.475082761587083269e+01 -2.854548363314505721e+01 -4.475082761587083269e+01 -5.416676848946380574e+01 1.639528781180334960e+01 -2.854548363314505721e+01 1.639528781180334960e+01 -6.537375609366800688e+01
-7.127552105740920751e+01 1.422951658642974238e+01 3.430322259879096780e+00 1.422951658642974238e+01 -7.048935024118375026e+00 -1.572688878608965624e+01 3.430322259879096780e+00 -1.572688878608965624e+01 -8.392930493976811590e+01
-7.022189235476126612e+01 6.936400056035359363e+00 2.676266260064872782e+01 6.936400056035359363e+00 -1.215802960974570794e+02 2.665231739758036511e+01 2.676266260064872782e+01 2.665231739758036511e+01 -8.240029750702471745e+01
-7.085377283055531450e+01 2.237199858528439123e+01 1.730497493367834494e+01 2.237199858528439123e+01 -6.824194606657388817e+01 -1.298067821732152360e+01 1.730497493367834494e+01 -1.298067821732152360e+01 -1.002558358460003234e+02
-2.555486491805964633e+01 2.468110848329619600e+01 -2.954928416963191395e+01 2.468110848329619600e+01 -2.511201124434563781e+01 3.745537734484381076e+01 -2.954928416963191395e+01 3.745537734484381076e+01 -3.086098992677744945e+01
-9.197306831294248752e+01 4.149070767131156856e+00 1.893357291040108947e+01 4.149070767131156856e+00 -2.673962386872669228e+01 -3.671409484079034780e+00 1.893357291040108947e+01 -3.671409484079034780e+00 -8.779991814311411957e+00
-6.326143299566950873e+01 -1.242100766226158193e+01 -1.259151566051880833e+00 -1.242100766226158193e+01 -1.022177838647881174e+02 1.891230584183731978e+01 -1.259151566051880833e+00 1.891230584183731978e+01 -3.250673738396123724e+01
-7.796879975144071295e+01 2.627238083357826426e+01 -3.393671422641129976e+00 2.627238083357826426e+01 -9.354970710858495409e+01 -4.303704995359679764e+00 -3.393671422641129976e+00 -4.303704995359679764e+00 -6.117206581799981535e+01
-4.694627550496774404e+01 -2.046577407820842609e+01 1.655079824932320065e+01 -2.046577407820842609e+01 -5.123816922238749783e+01 -5.312998651607992429e+01 1.655079824932320065e+01 -5.312998651607992429e+01 -6.706204859824129016e+01
-4.681276436100809235e+01 -1.333653646235228640e+00 6.496289614642615007e+00 -1.333653646235228640e+00 -3.382364838598245882e+01 8.298519459010266885e+00 6.496289614642615007e+00 8.298519459010266885e+00 -5.598331348230624727e+00
-4.714883865938028151e+01 -3.013664298739665570e-01 -9.095660560974939912e+00 -3.013664298739665570e-01 -1.129838358984875413e+02 1.106413733351993756e+01 -9.095660560974939912e+00 1.106413733351993756e+01 -6.160291146960970821e+01
1.259710117094039994e+01 2.143880085583963080e+01 -1.092482071311838610e+00 2.143880085583963080e+01 -1.002707336791400472e+01 -2.395092317642026458e+01 -1.092482071311838610e+00 -2.395092317642026458e+01 -6.015129839053248872e+01
-8.446810582600633666e+01 1.160293514633568712e+01 -1.238015141675531616e+01 1.160293514633568712e+01 -4.969446623059672419e+01 2.499704659875222390e+01 -1.238015141675531616e+01 2.499704659875222390e+01 -1.309494194627065440e+02
-6.456331607134571016e+01 -8.741003102236122757e+00 1.083024543645429638e+01 -8.741003102236122757e+00 -6.651900138954511021e+01 2.420536338536306786e+01 1.083024543645429638e+01 2.420536338536306786e+01 -2.114390949880313642e+01
-4.631442553111117633e+01 1.770433384915176234e+01 -1.024523143348595688e+01 1.770433384915176234e+01 -1.071538205384109688e+02 -2.526494699443565040e+01 -1.024523143348595688e+01 -2.526494699443565040e+01 -5.219937187113595911e+01
-3.863618361180821381e+01 -6.966124629427272730e+00 3.174154372954260506e+00 -6.966124629427272730e+00 -1.196674085200343711e+02 -2.573450212940181459e+01 3.174154372954260506e+00 -2.573450212940181459e+01 -7.523005929224635224e+01
-3.954928671058240042e+01 2.845271452666312584e+01 3.918858572592333189e+01 2.845271452666312584e+01 -1.133130827139910508e+02 1.641209231193882445e+01 3.918858572592333189e+01 1.641209231193882445e+01 -6.710436090220275673e+01
-2.589458731723605212e+01 -1.735814230112248779e+00 3.020638713267560060e+00 -1.735814230112248779e+00 -2.701975916496856556e+01 2.786200224483037857e+01 3.020638713267560060e+00 2.786200224483037857e+01 -4.881195228917712114e+01
-1.126806120223534293e+02 2.841007730525265629e+01 -2.050506307084391722e+01 2.841007730525265629e+01 -7.420782838942611193e+01 -1.301548867810941879e+01 -2.050506307084391722e+01 -1.301548867810941879e+01 -6.751781045523327407e+01
-2.600588080036200367e+01 -1.105879428855350177e+01 -6.470383401488478903e+00 -1.105879428855350177e+01 -3.982843112314040468e+01 3.669069448733683014e+00 -6.470383401488478903e+00 3.669069448733683014e+00 -4.565754101102970708e+01
-4.211048401056584822e+01 4.149647946544890331e+00 2.507858638262212558e+00 4.149647946544890331e+00 -6.809403626842964741e+01 -1.416717274379227121e+01 2.507858638262212558e+00 -1.416717274379227121e+01 -1.364853282741395724e+01
-4.264903427293484839e+01 5.036084407898215431e+00 -2.330797766194091380e+01 5.036084407898215431e+00 -2.631141569801803826e+01 9.596955357062595837e+00 -2.330797766194091380e+01 9.596955357062595837e+00 -6.463678257612104971e+01
-4.355102474671573987e+01 1.829035749639516339e+01 5.061036578715918388e+00 1.829035749639516339e+01 -1.234655616058413585e+02 -1.449624963053078197e+01 5.061036578715918388e+00 -1.449624963053078197e+01 -9.257046912626299218e+01
1.121934614539459724e-01 -2.979849943426190251e+00 -3.829427101774862763e+01 -2.979849943426190251e+00 -7.143901752733381727e+01 1.661064083309716111e+00 -3.829427101774862763e+01 1.661064083309716111e+00 -1.049092101546319711e+01
-7.524338246531232244e+01 2.832691295393860442e-03 6.880734036969571754e+00 2.832691295393860442e-03 -6.317410496036114154e+01 -7.456349110107368894e+00 6.880734036969571754e+00 -7.456349110107368894e+00 -7.104942087745220647e+01
-6.503695294015984985e+01 -1.382280600964690898e+01 -2.281748595767120413e+00 -1.382280600964690898e+01 -9.766557557270895984e+01 -1.854149738234924527e+01 -2.281748595767120413e+00 -1.854149738234924527e+01 -1.048851980670718405e+02
-2.940093621227354603e+01 -2.189814952585605212e+01 -3.684618643819803641e+00 -2.189814952585605212e+01 -3.644175198170670882e+01 -1.574929767597934038e+01 -3.684618643819803641e+00 -1.574929767597934038e+01 -2.061489039891013064e+01
-4.552517791595914076e+01 3.811101911547200416e+01 -1.811486831909939355e+01 3.811101911547200416e+01 -3.695321276249021025e+01 -1.116727078920311378e+01 -1.811486831909939355e+01 -1.116727078920311378e+01 -3.794866796734825698e+01
-2.974092335605628534e+01 -7.331729232180366296e+01 -2.271780964456190333e+01 -7.331729232180366296e+01 -2.040967786704242393e+00 -2.253353893319968293e+01 -2.271780964456190333e+01 -2.253353893319968293e+01 -4.353686964072894483e+01
-3.951962418304172076e+01 2.770283267978962627e+01 -1.512653633627797234e+01 2.770283267978962627e+01 -9.776196219521494868e+00 1.875624291772441055e+01 -1.512653633627797234e+01 1.875624291772441055e+01 -4.528347653903574610e+01
-5.574610588939797395e+01 2.853960280165092911e+01 -2.376335099586124144e+01 2.853960280165092911e+01 -8.314802316560019335e+01 2.757376316971387098e+01 -2.376335099586124144e+01 2.757376316971387098e+01 -7.761422152631473637e+01
-1.271031441868776568e+01 -2.588430292432655122e+01 1.191626045255966382e+01 -2.588430292432655122e+01 -1.981976123355331909e+00 -3.645602474767778034e+01 1.191626045255966382e+01 -3.645602474767778034e+01 -2.529409162815825241e+01
-4.828429991174822078e+00 3.484228027263728933e+01 3.572739762368957628e+00 3.484228027263728933e+01 -5.549647149366636256e+01 2.486800554426388032e+01 3.572739762368957628e+00 2.486800554426388032e+01 -5.660486329852150167e-01
-8.824329146749502684e+01 1.402621560133430734e+01 2.023107266790660219e+01 1.402621560133430734e+01 -3.952203652994015926e+01 1.871527004743782996e+01 2.023107266790660219e+01 1.871527004743782996e+01 -6.839660030700450477e+01
-3.183562291174968806e+01 -2.551970783197262893e+00 -2.982540133238346769e+01 -2.551970783197262893e+00 -7.863979530417942954e+01 -2.613725361021664284e+01 -2.982540133238346769e+01 -2.613725361021664284e+01 -3.909888859641664283e+01
-1.182058138024307681e+02 -7.251891953068966501e+00 -4.595830719674275144e+00 -7.251891953068966501e+00 -7.669114937012751909e+01 2.807634251335452191e+01 -4.595830719674275144e+00 2.807634251335452191e+01 -1.577602017344533465e+02
-8.749607510508215569e+01 -2.182393744942305958e+01 4.347244974641716908e+01 -2.182393744942305958e+01 -1.130114922791914012e+02 2.312626131038265243e+01 4.347244974641716908e+01 2.312626131038265243e+01 -9.044679619849678431e+01
-6.852463708636814488e+01 -2.681060435148051013e+01 3.247789242073347538e+01 -2.681060435148051013e+01 -8.709027399945118475e+01 -2.241129321204999769e+01 3.247789242073347538e+01 -2.241129321204999769e+01 -9.737592305997509357e+01
-7.715161489343616097e+01 -1.204680162652910225e+00 1.752904523611307042e+01 -1.204680162652910225e+00 -1.170949008493515322e+02 -1.556313984889075641e+01 1.752904523611307042e+01 -1.556313984889075641e+01 -6.682691778452573317e+01
-5.823163142427086569e+01 1.868664463349643157e+01 -1.244795273452419337e+01 1.868664463349643157e+01 -1.162615367212685058e+01 -2.033572697430056309e+01 -1.244795273452419337e+01 -2.033572697430056309e+01 -1.814205184064617526e+01
-2.904449441863472003e+01 8.730239385524802387e+00 -9.376730874710178298e+00 8.730239385524802387e+00 -2.031340451935312075e+01 2.470815855202854650e+01 -9.376730874710178298e+00 2.470815855202854650e+01 2.090983278765728670e+01
-7.727624593609387205e+01 1.138329705300925099e+01 -1.135785258189272540e+01 1.138329705300925099e+01 2.308694079491860052e+01 -1.656884874461838564e+01 -1.135785258189272540e+01 -1.656884874461838564e+01 -7.996771132338814425e+01
-4.813184789077453019e+01 1.156471402179841057e+01 6.573937529300311944e+00 1.156471402179841057e+01 -1.151319764947507593e+02 3.742914754526812882e+00 6.573937529300311944e+00 3.742914754526812882e+00 -1.623016233148129572e+02
-5.380322522683786701e+01 -2.804609810216284860e+00 2.630817913984563106e+01 -2.804609810216284860e+00 -6.948036549312040222e+01 -3.706138990162728675e+01 2.630817913984563106e+01 -3.706138990162728675e+01 -6.783701586894291324e+01
6.396213692469186363e+00 3.883467384237045739e+00 8.672199549310573019e+00 3.883467384237045739e+00 -1.174910799229411218e+01 7.568001786199573644e+00 8.672199549310573019e+00 7.568001786199573644e+00 -3.469296233921758699e+01
-6.109201346706108637e+01 8.796237441964521508e+00 8.794063642746122511e+00 8.796237441964521508e+00 -9.074381853938119491e+01 2.889548661694380272e+01 8.794063642746122511e+00 2.889548661694380272e+01 -5.150486737935420223e+01
-4.104312201155736517e+01 -3.083464064095843327e+01 1.174114539576338778e+01 -3.083464064095843327e+01 -4.942158555628068939e+01 4.653254101659886288e+00 1.174114539576338778e+01 4.653254101659886288e+00 -1.274871748314143893e+01
-4.058464833988647058e+01 -2.101574259907459918e+01 1.061164515999915237e+00 -2.101574259907459918e+01 -8.217934284818065294e+01 2.931213873334163011e+01 1.061164515999915237e+00 2.931213873334163011e+01 -2.653409670028981981e+00
-5.169141579137318132e+01 3.795745528250415557e+00 -4.133744668787343102e+01 3.795745528250415557e+00 -4.697566307304875011e+01 -1.040797171801991539e+01 -4.133744668787343102e+01 -1.040797171801991539e+01 -1.131784441752030119e+02
-3.377944454594755541e+01 -2.869452320931547362e+01 2.889031593109318674e+00 -2.869452320931547362e+01 -6.471800836997867634e+01 2.471923863277182321e+01 2.889031593109318674e+00 2.471923863277182321e+01 -1.308709266772940225e+02
-5.964849065760451197e+01 -3.673346120985594609e+01 -5.967310438411296047e+00 -3.673346120985594609e+01 -4.535003904365859739e+01 1.779311794567246352e+01 -5.967310438411296047e+00 1.779311794567246352e+01 -5.723460287348809317e+01
-5.967265656963232345e+01 2.323944013187497770e+00 -1.049200636283302579e+01 2.323944013187497770e+00 -5.591504344866380904e+01 3.396894112642006469e+00 -1.049200636283302579e+01 3.396894112642006469e+00 -7.587098679954281977e+01
-9.666452073702876646e+01 -4.064341360633084044e+00 3.238526305572487018e+01 -4.064341360633084044e+00 -6.172337449724069813e+01 1.756124182797402256e+01 3.238526305572487018e+01 1.756124182797402256e+01 -8.003869476489697377e+01
-6.034687428256462027e+01 -1.016111887188959528e+01 -3.430013699315626496e+01 -1.016111887188959528e+01 -4.119602479626644254e+01 1.005900245023609862e+01 -3.430013699315626496e+01 1.005900245023609862e+01 -5.751096928501791439e+01
-4.354266287605163654e+01 -7.728227111057472953e+00 -1.052832495464241802e+01 -7.728227111057472953e+00 -3.353785181121644143e+01 -2.282512612421539444e+01 -1.052832495464241802e+01 -2.282512612421539444e+01 -2.824662466742262623e+01
-6.907453053033667345e+01 1.717268747857678024e+00 3.157030520962968101e+00 1.717268747857678024e+00 -5.161347290824373601e+01 -1.332575369230295159e+01 3.157030520962968101e+00 -1.332575369230295159e+01 -5.122905429062474525e+01
-5.927037911555365213e+01 1.536366262779677960e+01 -4.843937664588584369e+01 1.536366262779677960e+01 -5.028644697797507490e+01 -9.747527606123520982e+00 -4.843937664588584369e+01 -9.747527606123520982e+00 -1.674629950818323820e+01
-5.008801336773763779e+01 6.166910745741712496e+00 2.747933907622394045e+01 6.166910745741712496e+00 -5.829270004104517966e+01 3.574157538572348614e+01 2.747933907622394045e+01 3.574157538572348614e+01 -4.206194222475436106e+01
-9.808108602312962887e+01 -4.815869161655370156e+00 6.558278824645681127e+00 -4.815869161655370156e+00 -6.320720125126172206e+01 4.349486308961776615e+01 6.558278824645681127e+00 4.349486308961776615e+01 -1.374836462605854770e+01
-1.699264002976016386e+01 4.649272219887677693e+00 2.821787262576346489e+00 4.649272219887677693e+00 -1.865823480507694043e+01 1.227391432335972610e+01 2.821787262576346489e+00 1.227391432335972610e+01 1.268195103392275414e+01
-2.289734981067617525e+00 3.124967914123720991e+00 -1.510836921752064299e+01 3.124967914123720991e+00 -4.475969787426149082e+01 9.977066538220173086e+00 -1.510836921752064299e+01 9.977066538220173086e+00 -4.845466783486975260e+01
-8.471644637655072074e+01 2.845515362957523386e+00 1.952218803373983036e+01 2.845515362957523386e+00 -1.198962197665576213e+02 -6.770296823971990285e+00 1.952218803373983036e+01 -6.770296823971990285e+00 -9.693764202172148714e+01
-8.641307395471011432e+01 2.645969096954856425e+01 1.817614023680718338e+00 2.645969096954856425e+01 -9.167040722646538597e+01 9.084439458219865315e+00 1.817614023680718338e+00 9.084439458219865315e+00 -9.525689824209982248e+01
-5.364111810018634685e+01 1.755948883707754149e+01 4.320864850747266672e+00 1.755948883707754149e+01 -2.573067587048404192e+01 -1.640626552154872186e+01 4.320864850747266672e+00 -1.640626552154872186e+01 -9.540091077530193786e+01
-1.354536353917076319e+01 -1.836606696270312966e+01 1.008164287260954950e+01 -1.836606696270312966e+01 -9.562622678207026183e+01 -2.935530718932747618e+01 1.008164287260954950e+01 -2.935530718932747618e+01 -1.419466535370881388e+02
-7.156616601833245284e+01 3.159421694129072922e+00 -1.770904953406905946e+01 3.159421694129072922e+00 -1.151419624486218964e+02 7.445967784821849733e+00 -1.770904953406905946e+01 7.445967784821849733e+00 -8.702687369829470754e+01
-1.013313290339575303e+02 2.544636026577158461e+01 2.365905049994473153e+00 2.544636026577158461e+01 -7.381408242734984526e+01 3.350509392511120410e+01 2.365905049994473153e+00 3.350509392511120410e+01 -2.045258813176137735e+01
-3.894043636361045202e+01 -3.085926413214910013e+00 -6.520175175335745088e+00 -3.085926413214910013e+00 -7.770705576912467905e+01 -1.709900517174621370e+01 -6.520175175335745088e+00 -1.709900517174621370e+01 -5.294024626905736852e+01
-1.002371247316925178e+02 -1.177167548317028611e+01 3.250215962284885407e+00 -1.177167548317028611e+01 -1.032381988759443630e+02 -2.496767952129140511e+01 3.250215962284885407e+00 -2.496767952129140511e+01 -7.301555653260464851e+01
-9.289208215718691974e+01 -3.706100624118000297e+01 -1.615136048801082680e+01 -3.706100624118000297e+01 -8.893136654291565435e+01 -3.029398545518895958e+01 -1.615136048801082680e+01 -3.029398545518895958e+01 -9.230703571809920049e+01
-9.929822785219032255e+01 -6.504579973817394389e+00 2.866996858582033880e+01 -6.504579973817394389e+00 -1.487296871629287693e+02 -2.232029403628397191e+01 2.866996858582033880e+01 -2.232029403628397191e+01 -9.907539288690203705e+01
-4.429785524957871701e+01 -1.116580445485955586e+01 -2.323829367533783241e+01 -1.116580445485955586e+01 -8.609337161577930431e+01 -9.211759213792413803e+00 -2.323829367533783241e+01 -9.211759213792413803e+00 -3.132521764544305043e+01
-8.617587324825035466e+01 1.868011110254257190e+01 -3.664874370079036048e+00 1.868011110254257190e+01 -2.739048482284039565e+01 4.850671640829757436e+00 -3.664874370079036048e+00 4.850671640829757436e+00 -7.251343328888934536e+01
-3.134622223841756394e+01 -1.026356350478116930e+01 3.287836016068737877e+01 -1.026356350478116930e+01 -2.012828561107268754e+01 -1.899741781399097107e+01 3.287836016068737877e+01 -1.899741781399097107e+01 -5.191159224203988742e+01
-9.927460401128337253e+01 1.154649456303651078e+01 1.426086413742241987e+00 1.154649456303651078e+01 -8.597918548925562732e+01 -2.536048031066313868e+01 1.426086413742241987e+00 -2.536048031066313868e+01 -9.064994718145443642e+01
-8.621085328148537030e+01 1.514959178769247217e+01 1.209072127226613169e+00 1.514959178769247217e+01 -9.392885409183439549e+01 -2.687063476197721457e+01 1.209072127226613169e+00 -2.687063476197721457e+01 -1.155993171098899097e+02
-9.894867983845182380e+01 2.064988086996547167e+01 1.300834054606091783e+01 2.064988086996547167e+01 -1.382406779658487608e+02 -1.692986864538549696e+01 1.300834054606091783e+01 -1.692986864538549696e+01 -6.351680200031178458e+01
-8.321829616420009756e+01 -3.299539059274744801e+01 -2.854020001279851115e+01 -3.299539059274744801e+01 -5.440733818538999600e+01 -3.669720607374037513e+01 -2.854020001279851115e+01 -3.669720607374037513e+01 -1.021459205052312029e+02
-3.766703919259717281e+01 1.700385323530554160e+01 -2.985705142077753393e+01 1.700385323530554160e+01 -8.576805899339260009e+01 2.589668098401662277e+01 -2.985705142077753393e+01 2.589668098401662277e+01 -2.414966917016595715e+01
-2.306348434530239544e+01 2.681498453687567007e+01 -4.223926379859084790e+01 2.681498453687567007e+01 -8.111728829064392698e+01 2.548385980635677583e+01 -4.223926379859084790e+01 2.548385980635677583e+01 -5.760709388063975922e+01
-1.080577390986662181e+02 -2.919964783329032088e+01 -3.246564260836331783e+01 -2.919964783329032088e+01 -6.310425490552224659e+01 1.452676325698708304e+01 -3.246564260836331783e+01 1.452676325698708304e+01 -2.785023998120898980e+01
-5.202789708323869888e+01 -6.045058158443962881e+00 -7.527761886132731561e+00 -6.045058158443962881e+00 -4.305168625556981965e+01 -9.973151726207561296e+00 -7.527761886132731561e+00 -9.973151726207561296e+00 -5.036959059259996963e+01
-1.273632236516367726e+02 -2.862469608286626155e+01 -4.305187830601008159e+01 -2.862469608286626155e+01 -6.379059127560933717e+01 5.087061076198089893e+01 -4.305187830601008159e+01 5.087061076198089893e+01 -9.436268895232029763e+01