9.940820000000000434e+00 8.590100000000000513e-01 1.919459999999999944e+00 4.805329999999999657e+00 6.977380000000000138e+00 4.336170000000000080e+00 6.708680000000000199e+00 6.950099999999999945e+00 2.876510000000000122e+00 1.033042000000000016e+01 3.084940000000000015e+00 2.037329999999999863e+00 4.392220000000000013e+00 6.825820000000000221e+00 1.287752000000000052e+01 5.478749999999999787e+00 3.632029999999999870e+00 3.312819999999999876e+00 1.752790000000000070e+00 2.456980000000000164e+00 2.193929999999999936e+00 1.188331999999999944e+01 9.960020000000000095e+00 1.012902000000000058e+01 7.944939999999999891e+00 1.055001999999999995e+01 9.701520000000000366e+00 4.042769999999999975e+00 1.307662000000000013e+01 9.973019999999999996e+00 1.273742000000000019e+01 5.709100000000000286e+00 6.285199999999999676e-01 6.002999999999999448e-01 1.087181999999999960e+01 8.475640000000000285e+00 1.929939999999999989e+00 8.840419999999999945e+00 7.911990000000000300e+00 3.389069999999999805e+00 2.574269999999999836e+00 6.039209999999999745e+00 9.147819999999999396e+00 2.113620000000000054e+00 1.237271999999999927e+01 5.393119999999999692e+00 7.722669999999999924e+00 6.587550000000000239e+00 5.617060000000000386e+00 3.615060000000000162e+00 6.145649999999999835e+00 1.267572000000000010e+01 2.871999999999999886e+00 2.561209999999999987e+00 4.740000000000000289e-03 1.122489999999999988e+00 1.240691999999999950e+01 2.796640000000000015e+00 1.278072000000000052e+01 6.484600000000000364e+00 7.336249999999999716e+00 5.122910000000000075e+00 7.330479999999999663e+00 6.605410000000000004e+00 1.348100000000000132e-01 7.132950000000000124e+00 6.757340000000000124e+00 7.069670000000000343e+00 1.208511999999999986e+01 1.671059999999999990e+00 5.795569999999999666e+00 9.404220000000000468e+00 1.031412000000000084e+01 9.100319999999999965e+00 3.733099999999999752e-01 3.578770000000000007e+00 6.323559999999999626e+00 7.574010000000000353e+00 5.780129999999999768e+00 9.326219999999999288e+00 8.184659999999999158e+00 4.323999999999999844e+00 1.038222000000000023e+01 2.313089999999999868e+00 5.947770000000000223e+00 4.320500000000000007e+00 1.266022000000000070e+01 2.630679999999999907e+00 3.497489999999999988e+00 1.005432000000000059e+01 1.020581999999999923e+01 1.098122000000000043e+01 1.193511999999999951e+01 1.100192000000000014e+01 1.117562000000000033e+01 8.185449999999999449e+00 1.230432000000000059e+01 1.316391999999999918e+01 9.540399999999999991e-01 6.320190000000000197e+00 9.035719999999999530e+00 1.669689999999999896e+00 2.217000000000000082e+00 1.077821999999999925e+01 1.288829999999999920e+00 2.343970000000000109e+00 9.760600000000000387e-01 1.846299999999999886e-01 8.436799999999999855e-01 1.955689999999999928e+00 9.338520000000000820e+00 1.216252000000000066e+01 1.322001999999999988e+01 5.727940000000000254e+00 5.748759999999999870e+00 1.455240000000000089e+00 9.410019999999999385e+00 8.268240000000000478e+00 8.603910000000000835e+00 1.119692000000000043e+01 8.706220000000000070e+00 7.063060000000000116e+00 7.626089999999999591e+00 3.631639999999999979e+00 4.402199999999999669e+00 1.286392000000000024e+01 4.601160000000000139e+00 1.317131999999999969e+01 4.389899999999999913e-01 9.027020000000000266e+00 1.191252000000000066e+01 1.420600000000000085e+00 7.866929999999999978e+00 5.345489999999999853e+00 2.052900000000000003e-01 1.223531999999999975e+01 8.867419999999999192e+00 5.654160000000000075e+00 1.446239999999999970e+00 7.867219999999999658e+00 1.145222000000000051e+01 9.140119999999999578e+00 1.601779999999999982e+00 6.500639999999999752e+00 9.428419999999999135e+00 4.202289999999999637e+00 4.230369999999999742e+00 1.249052000000000007e+01 8.053649999999999309e+00 1.144261999999999979e+01 1.017661999999999978e+01 1.098902000000000001e+01 3.454299999999999926e+00 9.399419999999999220e+00 9.455420000000000158e+00 7.913509999999999600e+00 6.891619999999999635e+00 1.140631999999999913e+01 5.865630000000000344e+00 1.205602000000000018e+01 1.237752000000000052e+01 3.248009999999999842e+00 4.965259999999999785e+00 7.997499999999999609e-01 5.348019999999999996e+00 1.068901999999999930e+01 7.526559999999999917e+00 8.707620000000000360e+00 9.231920000000000570e+00 1.324680000000000080e+00 4.232759999999999856e+00 9.447720000000000340e+00 6.904110000000000191e+00 1.306890000000000107e+00 1.138481999999999950e+01 1.799360000000000070e+00 1.077862000000000009e+01 7.354529999999999568e+00 2.253880000000000106e+00 5.185450000000000337e+00 1.010999999999999954e-01 1.552570000000000006e+00 4.555329999999999657e+00 6.383829999999999671e+00 5.352459999999999773e+00 1.028501999999999938e+01 3.115619999999999834e+00 9.577220000000000510e+00 5.365300000000000402e+00 2.603500000000000258e-01 4.665040000000000298e+00 4.977039999999999687e+00 3.274480000000000057e+00 4.284399999999999764e+00 3.190580000000000194e+00 4.440419999999999590e+00 1.281192000000000064e+01 3.261709999999999887e+00 7.150739999999999874e+00 1.115769999999999929e+00 2.571700000000000097e-01 5.133630000000000138e+00 3.685869999999999980e+00 9.387919999999999376e+00 1.195222000000000051e+01 2.603730000000000100e+00 8.654420000000000002e+00 2.075279999999999792e+00 1.163871999999999929e+01 1.028881999999999941e+01 1.151291999999999938e+01 5.967839999999999812e+00 1.174252000000000073e+01 1.322780000000000067e+00 8.069430000000000547e+00 2.509520000000000195e+00 9.928419999999999135e+00 4.020789999999999864e+00 1.112152000000000029e+01 1.261361999999999917e+01 6.129459999999999908e+00 8.154880000000000351e+00 4.096999999999999947e-02 6.015010000000000190e+00 3.008030000000000204e+00 3.504379999999999828e+00 9.141719999999999402e+00 1.247422000000000075e+01 7.683250000000000135e+00 9.580420000000000158e+00 4.719590000000000174e+00 9.326919999999999433e+00 7.932019999999999627e+00 5.593600000000000350e+00 8.789320000000000022e+00 6.199970000000000425e+00 1.098701999999999934e+01 1.103561999999999976e+01 7.389459999999999695e+00 3.214539999999999953e+00 1.255771999999999977e+01 4.116640000000000299e+00 1.140492000000000061e+01 2.166720000000000201e+00 1.312811999999999912e+01 4.227439999999999642e+00 5.327090000000000103e+00 1.033311999999999919e+01 4.480159999999999698e+00 1.048952000000000062e+01 5.898679999999999701e+00 4.993900000000000006e+00 1.038752000000000031e+01 1.316971999999999987e+01 7.679610000000000269e+00 7.163079999999999892e+00 1.098751999999999995e+01 2.682800000000000185e-01 1.212721999999999944e+01 4.111749999999999794e+00 6.903089999999999726e+00 1.232022000000000084e+01 8.810119999999999507e+00 1.776070000000000038e+00 1.181079999999999908e+00 1.467000000000000075e-02 7.870510000000000339e+00 5.474929999999999630e+00 7.765159999999999840e+00 1.005192000000000085e+01 2.971080000000000165e+00 7.570879999999999832e+00 9.663719999999999644e+00 1.844099999999999906e-01 1.130861999999999945e+01 1.817000000000000004e-01 7.510360000000000369e+00 4.947580000000000311e+00 3.770439999999999792e+00 5.101759999999999629e+00 1.092281999999999975e+01 1.258802000000000021e+01 5.864029999999999632e+00 1.416649999999999965e+00 2.161700000000000177e+00 8.524070000000000036e+00 4.382990000000000386e+00 9.209920000000000329e+00 1.081192000000000064e+01 1.024291999999999980e+01 5.678530000000000300e+00 1.111229999999999940e+00 4.201439999999999841e+00 1.292371999999999943e+01 1.730590000000000073e+00 1.033852000000000082e+01 1.222641999999999918e+01 4.213890000000000136e+00 1.087791999999999959e+01 7.276629999999999932e+00 7.633009999999999629e+00 1.288181999999999938e+01 9.518119999999999692e+00 2.317130000000000134e+00 4.697650000000000325e+00 6.028590000000000337e+00 5.740260000000000140e+00 3.568100000000000160e-01 1.149632000000000076e+01 2.921009999999999884e+00 6.689939999999999998e+00 3.010829999999999895e+00 9.508419999999999206e+00 5.478999999999999843e-02 1.117252000000000045e+01 1.307330000000000103e+00 8.281810000000000116e+00 5.831479999999999997e+00 9.919119999999999493e+00 1.545199999999999907e+00 5.396659999999999791e+00 1.034121999999999986e+01 1.043482000000000021e+01 7.187369999999999592e+00 1.975749999999999895e+00 7.793219999999999814e+00 6.978060000000000151e+00 1.904609999999999914e+00 4.675880000000000258e+00 1.018932000000000038e+01 1.320382000000000033e+01 3.011420000000000208e+00 9.089019999999999655e+00 2.421199999999999797e+00 3.745639999999999858e+00 1.297871999999999915e+01 6.225050000000000416e+00 1.370530000000000026e+00 1.079851999999999990e+01 4.980369999999999742e+00 9.303720000000000212e+00 1.764469999999999983e+00 6.248969999999999914e+00 4.718009999999999593e+00 6.599759999999999849e+00 1.028592000000000084e+01 8.836119999999999308e+00 8.857219999999999871e+00 3.432920000000000194e+00 9.870319999999999538e+00 6.644569999999999865e+00 7.418940000000000090e+00 1.259712000000000032e+01 6.320759999999999934e+00 6.018259999999999721e+00 2.793969999999999843e+00 8.875019999999999243e+00 8.639020000000000366e+00 3.268900000000000139e-01 1.018612000000000073e+01 2.188330000000000108e+00 5.867400000000000393e-01 7.142000000000000348e+00 9.873620000000000729e+00 2.055909999999999904e+00 1.243859999999999966e+00 4.127880000000000216e+00 9.533620000000000871e+00 4.381160000000000387e+00 9.531420000000000670e+00 7.921739999999999782e+00 4.303699999999999748e-01 8.512719999999999843e+00 9.887019999999999698e+00 1.079202000000000083e+01 1.164572000000000074e+01 9.080120000000000857e+00 6.648800000000000265e-01 8.864919999999999689e+00 8.303060000000000329e+00 7.008919999999999817e+00 5.753140000000000143e+00 6.682109999999999772e+00 1.300932000000000066e+01 2.188379999999999992e+00 9.036120000000000374e+00 1.158051999999999992e+01 2.768619999999999859e+00 8.735120000000000218e+00 8.933519999999999683e+00 1.285709999999999908e+00 5.412230000000000096e+00 5.483060000000000045e+00 1.223071999999999981e+01 1.203401999999999994e+01 1.383399999999999908e-01 3.323920000000000208e+00 5.343759999999999621e+00 6.650990000000000180e+00 7.941410000000000302e+00 5.447280000000000122e+00 9.975020000000000664e+00 4.949440000000000062e+00 2.784900000000000153e-01 1.870139999999999914e+00 2.219599999999999906e-01 3.495249999999999968e+00 1.219131999999999927e+01 1.132182000000000066e+01 3.340889999999999915e+00 1.119932000000000016e+01 8.450089999999999435e+00 8.471080000000000609e+00 4.641329999999999956e+00 4.506800000000000139e+00 9.880720000000000169e+00 1.195431999999999917e+01 1.261392000000000024e+01 2.326029999999999820e+00 3.772330000000000183e+00 1.035452000000000083e+01 1.227891999999999939e+01 8.700419999999999376e+00 2.990399999999999725e-01 7.649740000000000428e+00 1.222272000000000070e+01 9.535900000000000487e-01 1.107851999999999926e+01 9.794320000000000803e+00 9.421219999999999928e+00 3.639269999999999783e+00 9.874520000000000408e+00 5.360710000000000086e+00 6.759470000000000312e+00 3.093869999999999898e+00 4.052220000000000155e+00 3.421879999999999811e+00 1.020302000000000042e+01 7.880569999999999631e+00 1.512210000000000054e+00 4.127390000000000114e+00 8.755319999999999325e+00 5.707200000000000273e+00 1.080519999999999925e+00 1.161442000000000085e+01 5.565400000000000347e+00 1.312062000000000062e+01 7.109499999999999709e+00 1.439969999999999972e+00 1.545619999999999994e+00 5.256140000000000256e+00 2.498190000000000133e+00 2.630549999999999944e+00 1.120242000000000004e+01 1.656260000000000066e+00 9.383419999999999206e+00 7.271189999999999820e+00 1.168762000000000079e+01 9.990019999999999456e+00 6.090300000000000047e+00 2.788310000000000066e+00 5.119589999999999641e+00 8.973420000000000840e+00 7.552050000000000374e+00 1.064882000000000062e+01 3.638920000000000154e+00 6.971100000000000074e-01 1.304411999999999949e+01 1.211242000000000019e+01 1.066921999999999926e+01 8.866419999999999746e+00 4.489390000000000214e+00 3.133379999999999832e+00 6.679199999999999804e+00 1.174371999999999971e+01 8.557990000000000208e+00 2.973539999999999850e+00 7.161200000000000010e+00 9.878819999999999268e+00 9.749299999999999633e-01 8.320300000000000473e-01 7.106550000000000367e+00 3.357889999999999819e+00 1.130212000000000039e+01 1.284622000000000064e+01 6.699699999999999989e+00 5.410470000000000113e+00 1.826699999999999990e-01 4.178659999999999819e+00 9.966519999999999158e+00 6.869100000000000206e-01 3.295319999999999805e+00 4.187859999999999694e+00 7.772929999999999673e+00 1.036501999999999946e+01 6.896799999999999597e-01 1.196341999999999928e+01 7.602140000000000342e+00 3.761740000000000084e+00 7.941709999999999603e+00 1.315531999999999968e+01 6.181320000000000370e+00 8.676320000000000476e+00 9.350419999999999732e+00 2.194339999999999957e+00 3.293229999999999880e+00 5.966409999999999769e+00 2.051959999999999784e+00 2.265150000000000219e+00 9.886919999999999931e+00 9.239720000000000155e+00 3.525230000000000086e+00 1.238072000000000017e+01 3.448669999999999902e+00 6.828839999999999577e+00 4.338700000000000223e+00 1.238571999999999917e+01 7.445999999999999841e-02 2.272310000000000052e+00 2.527859999999999996e+00 3.189519999999999911e+00 3.126250000000000195e+00 1.054701999999999984e+01 4.569700000000000095e+00 4.906229999999999869e+00 2.847409999999999997e+00 5.396219999999999573e+00 2.521279999999999966e+00 1.111240000000000006e+00 1.167642000000000024e+01 1.213389999999999969e+00 2.213519999999999932e+00 1.151811999999999969e+01 1.160182000000000002e+01 1.248362000000000016e+01 1.137659999999999894e+00 3.102699999999999902e-01 7.867720000000000269e+00 6.128540000000000099e+00 1.227211999999999925e+01 1.887010000000000076e+00 9.202220000000000510e+00 4.942000000000000171e+00 1.286111999999999966e+01 1.188900000000000068e+00 5.817840000000000344e+00 2.616060000000000052e+00 1.007812000000000019e+01 1.678800000000000014e-01 9.730620000000000047e+00 6.573509999999999742e+00 8.428660000000000707e+00 7.075289999999999857e+00 7.860179999999999723e+00 1.929589999999999916e+00 9.096120000000000871e+00 1.106822000000000017e+01 2.593750000000000000e+00 6.698859999999999815e+00 4.224820000000000242e+00 2.923230000000000217e+00 4.514599999999999724e+00 8.592800000000000438e-01 9.208220000000000738e+00 1.003651999999999944e+01 1.103452000000000055e+01 4.809560000000000279e+00 1.279391999999999996e+01 8.964219999999999189e+00 1.040962000000000032e+01 5.547439999999999927e+00 5.022710000000000008e+00 9.156620000000000203e+00 4.520470000000000432e+00 7.303880000000000372e+00 7.606950000000000323e+00 6.519440000000000346e+00 1.108211999999999975e+01 1.236702000000000012e+01 9.471019999999999328e+00 9.003499999999999837e-01 7.616970000000000240e+00 2.300870000000000193e+00 1.229261999999999944e+01 5.297579999999999956e+00 1.161800000000000055e-01 4.857669999999999710e+00 3.644530000000000047e+00 2.868720000000000159e+00 1.250702000000000069e+01 9.577220000000000510e+00 1.158712000000000053e+01 3.389559999999999906e+00 1.955189999999999984e+00 4.750900000000000123e-01 8.899620000000000530e+00 1.781409999999999938e+00 7.472600000000000353e-01 5.382850000000000357e+00 2.430900000000000005e-01 3.108319999999999972e+00 1.301022000000000034e+01 3.227279999999999927e+00 1.250022000000000055e+01 6.193360000000000198e+00 1.891920000000000046e+00 6.486500000000000377e+00 9.558120000000000616e+00 3.985079999999999956e+00 1.786729999999999929e+00 7.036349999999999660e+00 1.041802000000000028e+01 4.527169999999999916e+00 1.174172000000000082e+01 2.456500000000000072e-01 4.968069999999999986e+00 1.134911999999999921e+01 3.149340000000000028e+00 7.858290000000000219e+00 1.204302000000000028e+01 7.412100000000000355e-01 7.239999999999999908e-03 7.998980000000000423e+00 5.821369999999999933e+00 1.111581999999999937e+01 1.048371999999999993e+01 1.107601999999999975e+01 9.780620000000000758e+00 1.024991999999999948e+01 1.311481999999999992e+01 1.137271999999999927e+01 1.123161999999999949e+01 2.870159999999999823e+00 7.864299999999999624e-01 9.623720000000000496e+00 7.861600000000000144e+00 9.707319999999999283e+00 1.222142000000000017e+01 1.177641999999999989e+01 3.790220000000000145e+00 1.215492000000000061e+01 7.176999999999999602e+00 7.911039999999999850e+00 2.191040000000000099e+00 6.535180000000000433e+00 5.587250000000000050e+00 7.581400000000000361e-01 6.581380000000000230e+00 3.687289999999999957e+00 1.355990000000000029e+00 5.338709999999999845e+00 7.159570000000000434e+00 8.392630000000000479e+00 1.203142000000000067e+01 1.263042000000000087e+01 1.202639999999999931e+00 1.117521999999999949e+01 2.995610000000000106e+00 6.244780000000000442e+00 8.886520000000000863e+00 4.850259999999999572e+00 1.260361999999999938e+01 1.106142000000000003e+01 1.136591999999999913e+01 3.145459999999999923e+00 7.579069999999999752e+00 7.678429999999999644e+00 6.233939999999999593e+00 3.558149999999999924e+00 6.172500000000000320e+00 8.800119999999999720e+00 6.988800000000000345e+00 8.282400000000000873e+00 4.276320000000000121e+00 7.883440000000000225e+00 7.448649999999999771e+00 6.483649999999999913e+00 7.501100000000000101e+00 9.550119999999999720e+00 6.585370000000000168e+00 5.606760000000000410e+00 3.568319999999999936e+00 5.723270000000000302e+00 1.257091999999999921e+01 2.931979999999999809e+00 1.056422000000000061e+01 2.348120000000000207e+00 8.180519999999999570e+00 4.308309999999999640e+00 4.771950000000000358e+00 1.224652000000000029e+01 1.020912000000000042e+01 5.674929999999999808e+00 1.001421999999999990e+01 5.450619999999999798e+00 1.134511999999999965e+01 5.726599999999999469e-01 7.448000000000000176e-01 8.838119999999999976e+00 1.149022000000000077e+01 6.574910000000000032e+00 4.314540000000000042e+00 8.307230000000000558e+00 1.021411999999999942e+01 8.396150000000000446e+00 2.598800000000000221e+00 7.840930000000000177e+00 2.200060000000000127e+00 2.173830000000000151e+00 1.348840000000000039e+00 1.446539999999999937e+00 6.263320000000000221e+00 6.759120000000000239e+00 1.062662000000000084e+01 7.875680000000000014e+00 1.053772000000000020e+01 5.643880000000000230e+00 9.513519999999999754e+00 3.464249999999999829e+00 3.093840000000000146e+00 6.239849999999999675e+00 4.383449999999999847e+00 1.132342000000000048e+01 1.016562000000000054e+01 1.278650000000000064e+00 1.162052000000000085e+01 8.132329999999999615e+00 1.267800000000000038e+00 1.262762000000000029e+01 3.861600000000000033e-01 1.034651999999999994e+01 1.252932000000000023e+01 6.886160000000000281e+00 2.906000000000000250e-01 8.521760000000000446e+00 9.936519999999999797e+00 1.292601999999999940e+01 1.255640000000000089e+00 5.917349999999999888e+00 4.765400000000000191e-01 1.292182000000000031e+01 9.907420000000000115e+00 6.972050000000000303e+00 2.581100000000000172e+00 1.204682000000000031e+01 7.239930000000000199e+00 8.799920000000000186e+00 6.968250000000000277e+00 4.346260000000000012e+00 3.109100000000000197e-01 1.290521999999999991e+01 3.828419999999999934e+00 5.778310000000000279e+00 1.075081999999999915e+01 8.668219999999999814e+00 5.604129999999999612e+00 1.289430000000000076e+00 9.830900000000000194e-01 4.032070000000000043e+00 5.557699999999999863e-01 2.918130000000000113e+00 1.763800000000000034e+00 5.051470000000000127e+00 1.051992000000000083e+01 8.310159999999999769e+00 4.764070000000000249e+00 3.651940000000000186e+00 1.303392000000000017e+01 4.426470000000000127e+00 4.229180000000000383e+00 3.971929999999999961e+00 1.198001999999999967e+01 5.422480000000000189e+00 7.155999999999999694e+00 1.386160000000000059e+00 8.211699999999999555e-01 1.246662000000000070e+01 1.239222000000000001e+01 1.258381999999999934e+01 4.543350000000000222e+00 5.632410000000000139e+00 7.104029999999999845e+00 5.416970000000000063e+00 1.248101999999999911e+01 5.363050000000000317e+00 1.085811999999999955e+01 5.528609999999999580e+00 1.117852000000000068e+01 5.611790000000000056e+00 1.128181999999999974e+01 7.438629999999999853e+00 1.153982000000000063e+01 6.236800000000000122e-01 5.826870000000000438e+00 8.482879999999999754e+00