-7.789473609875309921e+04
-7.789241484660055721e+04
-7.789521849697444122e+04
-7.789654892490037309e+04
-7.789403104386402993e+04
-7.789318882925865182e+04
-7.789292275805523968e+04
-7.789401955582942173e+04
-7.789426117620010336e+04
-7.789647956768772565e+04
-7.789307880155171733e+04
-7.789622772741317749e+04
-7.789681649989532889e+04
-7.789194636203111440e+04
-7.789284395762885106e+04
-7.789256373649944726e+04
-7.789674521974133677e+04
-7.789485165416084055e+04
-7.789579784464693512e+04
-7.789298208436561981e+04
-7.789526205388523522e+04
-7.789287796041226829e+04
-7.789327647658600472e+04
-7.789191568417738017e+04
-7.789438390699900629e+04
-7.789606100376130780e+04
-7.789490269975908450e+04
-7.789604238530334260e+04
-7.789278240952981287e+04
-7.789289350034255767e+04
-7.789649139829774504e+04
-7.789318292287940858e+04
-7.789385891350635211e+04
-7.789482639131505857e+04
-7.789619117406323494e+04
-7.789778251393660321e+04
