-8.957960695886372227e-01 -1.027519866077343247e+00 3.267913525774495120e-01 -2.648760980119044817e-01 -8.729014224861526561e-01 -6.148562319178032531e-01 -2.479515529434213328e-01 6.266570821829452465e-01 -5.665045760904887651e-01 -1.327969750369370150e+00 1.455630175086096711e-01 1.594861079205671661e+00 -2.307539566966388678e-01 -1.604802507510870058e+00 -2.537930998087319368e-01 2.289004996965222194e+00 3.670656300455827914e-01 -5.857801380839894323e-01 1.634639647943333163e+00 -1.192470031465877378e+00 -7.116017096677629272e-01 1.832748819323301470e+00 -1.310223994883290000e-01 -7.823846997696003447e-01 1.826997775296749005e+00 -1.256374805822081608e+00 2.047230776987731815e-01 5.004868689816823757e-01 -2.213015522531406876e-01 5.401373967713278545e-03 -8.520374328283081278e-01 -7.382306273103783623e-02 -1.906200614727160125e-01 -1.176382637655908926e-02 2.518148928729176950e-01 -5.089483701849117914e-01 -1.928965678219604518e+00 -1.703140012469896714e-01 -3.061140250245441563e-01 9.774903081882763134e-01 -8.387515132544496321e-01 -4.837263603084487329e-01 1.506419751132464180e+00 2.179282646266937018e+00 -7.285277973982704491e-01 5.340001730180283790e-01 -1.585275491607409937e-01 1.565759274338119900e+00 1.515793994033398373e-01 -3.154594715676916072e-01 1.080655316841980573e+00 1.703480426556589711e+00 6.180387436739130935e-01 -1.669785602622052556e+00 4.921066146450656098e-01 -2.860223948201940924e-01 -5.110787864404560399e-02 -3.418564756859887588e-01 -4.624936744267989508e-01 1.601190621491332955e-01 -7.545139391974317045e-01 -4.352050116584622597e-01 2.878041694582486945e-02 1.370109620445544518e+00 -6.033191768588147541e-01 -1.792465285883022286e-01 -8.213513140618106112e-01 1.691426065498789766e-01 3.892295695692288282e-01 -3.357223372567378350e-01 -1.117368616137378146e+00 2.373452373057543530e-01 -6.085755405962448572e-01 -1.546726938723782085e+00 -2.751795376721359321e-01 -1.031954505176501780e+00 -6.526169987276937423e-01 -1.424699801499086649e-02 -5.433502475472485882e-01 9.167263937135262664e-01 1.237077646560240662e+00 -7.658977564953407535e-01 -1.170510237550112381e-01 8.929776260702598778e-01 -2.881970340537678421e-01 -1.829428496426354966e+00 -1.161114911601512922e+00 1.090526296914736237e+00 2.431209639246952880e-01 2.038710140406904681e-01 3.907048686851246483e-02 -1.440223095228839956e+00 1.019687770980024055e+00 9.707529889075280360e-01 1.099712335048706885e-01 9.537158295112717621e-01 4.435343581482775743e-01 1.378664709811580735e+00 -2.403279743297186410e+00 2.126527718801624722e+00 2.091890842590920785e-01 -1.032005927243978105e+00 -1.286681429730603954e+00 6.415196023456277707e-01 -1.260756480191739470e+00 6.791075910087978063e-01 -2.790382496155594527e-01 -1.108563615523406654e+00 3.278850999526710108e-01 1.219992664641231128e+00 1.608847367338557544e-01 1.019269709571441807e+00 2.324289277005452625e+00 -7.675561181714521952e-01 -4.825909610585714382e-02 1.512847509567004867e+00 6.223931643478084474e-01 -1.257599679469367571e+00 -9.513082483120302024e-01 1.000087221520073039e-01 -8.644085538217626263e-01 -1.620921268781999158e+00 1.487553508796074730e+00 -6.480260365434072911e-01 -5.977475958477548312e-01 7.221458046037836087e-02 4.005650501237101313e-01 1.863417454586857036e-01 1.073847035108114849e-02 -1.873532175259450261e-01 -7.676476494515600546e-01 2.668184637666877634e+00 -3.556442746384160247e-01 -8.862068824456519334e-01 -1.685783007813937528e+00 4.721882768081107212e-02 -6.783923100502021741e-01 1.504028624994814822e-01 -1.772784003777133410e+00 4.626957631519809655e-02 1.120026622805229355e+00 -2.375699517406259273e-04 -2.815142221645445253e-01 1.650803146413166944e+00 1.460405742492623560e+00 -2.294614116085540001e+00 1.708960990508216482e-01 -5.307950355522289554e-01 2.155947312046180009e-01 -8.205732981808938620e-01 -6.901844185638731366e-01 1.373276191360736531e+00 -3.976802721382882155e-01 -8.508809505307655952e-02 -4.350877693446163486e-01 5.434196673383416831e-01 -1.160925164172525309e-01 1.259461672532685483e+00 2.539735912655738739e-03 2.715599383424773233e-03 -3.574692438131508720e-01 -2.140834366414888223e-01 -6.100765507458787845e-02 -3.019750628133746617e-01 -8.963406292832114541e-01 1.352811236946508622e+00 4.527425077712632917e-01 4.223793195885170992e-01 4.517372063521011283e-01 -5.605457869113320557e-01 1.680185201548464735e-01 -6.187936196244655518e-01 -3.231285587111107915e-01 7.475020260763598490e-02 1.017404116963400496e+00 -1.145889351642447561e-02 5.802378676513910705e-01 6.323711023209146465e-01 -1.655312347510166093e-01 1.548756053506398001e+00 1.921761446566171205e+00 -2.449740095482721980e+00 9.057426401005829186e-01 -9.976667848039623143e-01 -7.980771721013507625e-01 -5.226559507120760451e-01 2.144070871341848150e+00 6.360698916344866838e-01 -2.141460172976074716e+00 1.734444224487459607e+00 1.650647337548713622e+00 -2.996379298465756680e-01 -4.419438736012348268e-01 5.822932076884199115e-02 -7.902697595964203181e-02 2.104406973814658688e+00 -2.322426255500785741e-01 -8.435111398200585420e-01 -2.211563877566550040e+00 -1.599210357672819383e+00 -7.892027516962863976e-01 -7.074133822718161636e-03 1.331688594289258010e+00 5.312902300620259144e-01 -9.514707420452555020e-01 -1.511759932839880527e+00 1.368528391870647454e+00 -7.574033451689263785e-01 9.256599494961882391e-01 1.197481111941445381e-01 -1.693110652429314023e+00 2.276435386791309412e+00 -9.292481813646863431e-03 -1.607853378774240394e+00 2.892023354729300610e-01 -1.552074833741320159e+00 3.371359298916620229e-01 -1.016625586861808817e+00 1.628098760960344560e+00 1.983451986696844679e-02 1.149873019209838532e+00 8.839134582362079273e-01 7.008760948335508445e-01 2.102819574591664242e+00 -4.170931310519507274e-01 -4.944005530751844346e-01 -1.197436888963415713e+00 2.093719925531054127e+00 -2.093280266854130822e+00 -1.336979925032572236e+00 -6.494180319099914778e-01 5.275934976311529301e-01 2.722480170273780864e+00 -4.555136429875624726e-01 1.293871777425818215e-01 1.597997311101052864e-01 1.208194899700137936e+00 5.377637541366205864e-01 -3.462448349244183765e-01 6.899237086817682219e-01 -1.379098197840406437e+00 -1.284286704048231087e+00 -5.078525659269913506e-01 4.991067006906178549e-01 1.891379232218458606e+00 -1.075751708487437952e+00 2.885631591741993351e-01 -5.865365566965662358e-01 -1.392918906916018384e+00 2.318839052073636608e+00 1.492298222962115561e+00 -5.155067406708424560e-01 7.843407952163998498e-02 1.181066159561652507e+00 -6.379555388488435952e-01 -1.660171732886678575e-01 -2.498181739928120038e-01 8.723856591493650559e-02 1.042880666073871254e-01 -1.289838230452975187e+00 -1.580772975379182821e+00 2.347571132276033978e+00 3.891164410207809121e-01 6.046180982832667361e-01 -8.779423277608567888e-01 -6.504511012455909125e-01 7.509329064183803970e-01 -5.240314910170678075e-01 3.606435280384644448e-01 -2.655049898971399980e-01 1.850826761365278683e+00 5.845208116514942764e-01 -6.688159784240857997e-01 -1.150092591437962497e+00 1.286156410421670504e+00 1.122145211985253965e+00 -2.758814488931878195e+00 -7.851023560357240916e-01 -1.570431483389018945e+00 1.771012513552574053e+00 3.172849549631011623e-01 -1.494371046502086076e+00 -1.568133945414176722e+00 -7.027036351116594526e-01 -9.958628986768928160e-01 8.726093451428871273e-01 1.053098230881417546e-01 3.533282247192823244e-01 -2.670419954940073115e-01 6.991549982351183412e-02 4.455891839646315966e-01 2.037531546620347189e+00 7.835905472519202331e-01 2.873927929184381114e-01 4.746544791642753336e-01 3.622160148618904785e-01 -3.273873343395001800e-01 -8.921651574041338240e-01 -4.082701327143627434e-01 -8.331357092653601804e-01 1.273815628448026871e+00 1.141944250625663626e+00 6.019436365538229916e-01 -1.195584151872243650e+00 2.185674409254244333e-01 7.636809511664363059e-01 -1.660932779485328359e+00 -5.363661023426140595e-01 9.765626540910032904e-01 5.615737140401838579e-01 4.962255222499192819e-01 4.611546437897154904e-01 -1.000896604862150374e+00 3.068385619552854937e+00 -1.686684950877472167e+00 1.098567165606009199e+00 7.205141824027597730e-01 6.428195522114293903e-01 3.742570061821469674e-01 4.512816068342609399e-01 -5.683038342314854496e-01 -6.302309158725498683e-01 -1.271935123440417759e-01 -1.213793220186285549e+00 -1.372480691976877831e-01 1.965541680594840301e-01 -1.577021221336110113e+00 1.026518164202904621e-01 -1.811047678406942252e+00 3.862260066079366283e-02 -2.149061897211099748e-01 -8.030584277777824687e-02 -2.123356005679684633e-01 -6.241641403516930975e-01 -5.138072413407498429e-01 -6.941464888629240992e-03 4.505483281520484828e-01 -1.785991247587752698e-02 -1.640847834149750106e+00 -4.436217756629873832e-01 5.599801441690923642e-01 5.782442340953338755e-01 3.116321270854286452e-01 -3.013975929956154709e-01 -3.720047196266839107e-01 1.684530366250214239e-01 -2.562952976121299908e-01 1.198740952594615355e-01 3.091371283714773321e-01 6.321376461345720177e-01 9.321062198750205141e-01 -6.602799152230157675e-01 7.539863487851244939e-02 1.645676880506452111e+00 -3.503467732470049723e-01 -2.854201909879788168e+00 5.822068186150595182e-01 -1.306524177128368436e+00 1.492324962437203140e-01 -1.761828532301302097e+00 -5.302360776787612417e-01 -2.282517588932408692e-01 1.345365835796611120e-01 -2.712899724882266717e-01 -1.064632200616357549e+00 5.922896576058175877e-02 7.126738597746443138e-02 3.394226692323342731e-01 1.891138062721994917e+00 6.511134174746859848e-01 1.604971686112867113e+00 -4.813604309838629969e-01 -3.077101659990092442e-01 3.691965605218017199e-01 -6.693456257190920633e-01 -2.934014615030468009e-01 1.522699977695468887e-01 -6.528417131625653402e-01 3.129135650069386765e-02 1.324762041800196855e+00 8.166389957982800318e-02 -2.963546308382121741e-01 -3.116336697474529349e-01 -1.740636984073633611e-03 8.381899842776083798e-01 -2.145158962289646642e-01 -5.249612019970397725e-01 -2.004514465535147671e-01 6.701092434211154414e-01 1.110199865710503442e+00 1.506134872878645004e+00 3.097901886284266659e-01 8.406155632004665978e-01 1.163359999067529404e+00 -5.625980416243122617e-01 7.373672507974508017e-01 8.081630964161573560e-01 1.001224163431974290e+00 9.686796511468825921e-01 3.858706801216751914e-01 -7.575632677987778063e-01 -3.787096430049220475e-01 1.270789953997719879e+00 1.933742274067480338e-01 1.515871127134612861e-01 -6.956557265433541692e-01 -4.535287511829763085e-01 -9.662628139754952938e-01 1.092462337755219837e+00 -1.550395903238218076e-01 -1.608122316187141770e-02 1.306856877904940095e+00 -2.833762152278622715e-01 -1.536702206669272319e-01 8.494473032895256681e-01 3.512908824058702528e-01 -5.612137595678495794e-01 -1.352209084536360573e+00 1.746622512727877830e-01 4.660567094822335998e-01 2.548441668679480854e-01 -1.106618318710777427e+00 4.226348872638744369e-01 1.535953501366817076e+00 1.019257368275247183e-01 -8.160610117598461333e-01 6.338186335203732646e-01 -2.942962054771348646e-01 -4.002745154424688923e-01 -5.652781597811783465e-01 -4.388276963121694463e-01 -6.971567366929881659e-01 5.837597650528446591e-01 2.409890050071268053e-01 1.213967026774355612e-01 -1.686354306983599782e+00 2.801340538734800045e-01 -9.410320623475612045e-01 -6.786540483736565044e-01 9.009639873700079349e-01 8.476979245539809638e-01 1.839014084024616968e+00 2.983348946567255244e-01 2.038098732024610893e+00 -1.645274759938787079e-01 2.531302693589621566e-01 -2.401199720667769322e-01 -1.421768743652936373e-01 2.159886242414866542e-01 6.002271679414632466e-01 -1.106990100258631315e+00 -1.601856023044476496e+00 -2.437837943744650959e-01 4.550714132072660734e-01 1.053836651770377442e+00 6.858315405520021280e-02 -4.540542847125843551e-01 -5.646400119237972026e-01 -9.343621059752069691e-01 1.050740529087627717e+00 -5.153982401084674508e-02 -1.115652661745692997e+00 -9.108318821187149084e-01 -4.792742377063484438e-02 7.206231971858094720e-01 -4.974365119389867473e-01 -4.822078666558728965e-01 1.344414527548299099e-01 -1.408717822927444852e+00 -1.325609477472206865e-01 1.105178500821440146e-01 -1.765440418320839200e+00 5.505318534909923178e-01 7.498905811106352237e-01 -1.341274696108194719e+00 -1.040427833455250584e+00 1.363908119107899442e+00 -6.178201998871386547e-01 -1.764265938299680148e+00 2.119522490549325067e+00 -7.363321245791523140e-01 -1.359384005611332435e+00 1.249911051940307161e+00 1.598737788872711951e-01 -7.001988662048876932e-01 2.494988429537840224e-01 -9.725131662772427132e-01 2.227110311226667694e-01 1.206203837247454613e+00 -1.530115039825554954e-02 5.582317938748974084e-01 -9.466972315214279288e-01 -4.509936432563934061e-01 -1.187374618799648118e+00 7.390451528592033581e-01 6.764279870726064292e-01 1.406640885622076009e+00 -6.083893927119804479e-01 -1.115455201006583907e+00 1.746576232867149470e+00 -8.420882912129885600e-01 2.074798147361789913e-01 6.297645177205396516e-01 -6.988922314703142069e-01 1.811681712498925512e+00 -5.636357389459845102e-01 -4.476753772421461497e-02 2.765746183627686428e-01 3.323408220994946566e-02 1.688541287513367906e-01 -7.583520823138646672e-02 -3.161088294357826456e+00 -1.351317940106995907e+00 -5.999494887770910889e-01 6.418728719491901824e-01 -5.574887449998644495e-01 -3.260621876606352443e-02 -1.210538203315034256e+00 2.562608962489883346e+00 -8.669045809770634659e-01 -2.259519069253622003e+00 -1.080644003987135671e+00 -4.191392151168338298e-01 -1.408301818401561212e+00 -4.804672296717991259e-02 6.103233766697650081e-02 1.207093953235469863e+00 -5.156615210939461402e-01 5.723409807490517087e-01 -1.677848068581665464e+00 -8.617382058577170989e-01 1.156603653621814942e+00 -7.386368616434412226e-01 1.401235397888964451e+00 -2.001850802439874011e-01 -6.791579846349246052e-01 -2.770070779502445957e-01 6.444743143428175447e-01 6.700105130515608964e-01 -1.352484192597358970e+00 -1.353405676046534722e+00 -1.470359512094015830e+00 8.710733679873692292e-01 -3.772302301236281075e-01 -8.024506189402121903e-01 3.312254774559331150e-01 -1.193710845954081057e+00 -9.760679738018811225e-02 -8.899396103237584565e-01 -5.326595997189205178e-01 8.883624955142595259e-02 -1.410135015107092382e+00 -7.098307336638782772e-01 9.315107523336446649e-03 6.013419983643500943e-01 -5.449654146866801385e-01 9.425922078747928090e-02 -7.688663524507489688e-01 -1.057387345529617662e+00 1.657718900268058126e-01 1.607647176283660384e+00 -8.957158511633742104e-02 -9.420111385123103309e-02 -4.949420274457101421e-01 7.011985111966274609e-01 -1.258713481450904892e+00 4.269270872361233260e-01 -1.268479560506008630e+00 1.589430394659497037e-01 6.844904530322195590e-01 7.584477273593707158e-01 2.501153935428251374e-01 7.151935410809843185e-01 1.005958593184519856e+00 -4.494741211624679877e-01 -1.854021614417582731e+00 -2.267329567082601027e+00 3.407786691516849764e-01 -1.037236579947669934e+00 -9.666217400064799903e-02 2.526355890698399054e-01 3.500814353788270911e-03 -1.163295721483183776e-01 -5.230184762877841953e-01 1.944150100524688896e-01 -1.172951243093213636e+00 -1.936546833627639463e+00 -3.801072947989285744e-01 3.726778344899490114e-01 -1.785291907470074879e-01 1.643809231015711525e-01 1.093523689227930973e+00 1.499152270336034709e+00 -6.632413120889774083e-01 4.463949677619856102e-03 -3.707531065043100701e-04 -5.578265879831839982e-03 7.851110977871951224e-01 -2.565652634663807483e-02 7.294451670820480960e-01 -1.415774987467895540e+00 2.124399873649454248e-02 8.119163931212542984e-01 9.460631974294449187e-02 -3.271960442484882492e-01 -2.150368017724998970e-01 1.747321852845556142e-03 8.710286307886647705e-01 8.174334667407893162e-01 2.251859752303023154e-01 1.256284302983323276e+00 7.826160990732438094e-01 -4.981872741241410441e-01 9.559274926334286882e-01 1.666629830341030516e+00 5.616035388393200156e-01 1.461276318094997806e-01 -3.827349624469688627e-01 1.112113280841297680e+00 1.410523251716538695e+00 8.795847485960507639e-02 -3.064128386586490116e+00 -4.637571146246922682e-01 -7.510918006068821873e-01 -7.284619771519006415e-01 2.981544031998836219e-01 5.466376603210102436e-01 2.638111469944697807e-01 1.143597984315702476e+00 -1.408662801315245128e+00 1.924509441852106262e+00 4.089406764742540834e-01 -7.430277919852448232e-01 1.364625971169868945e+00 -2.487938464086835721e-01 -2.861524926509091959e-01 6.609849117681162456e-01 -3.025613772267397028e+00 1.876794391220148350e+00 4.690258196583167033e-02 3.245719761451713592e-01 1.398685377562813581e-01 -8.487088824005655230e-01 -7.720560632963054115e-02 -2.814172915673516684e+00 -1.091071370829985065e+00 4.847815411330629320e-01 1.427666854792470907e-01 -3.531040245050855453e-01 1.732432078987111046e+00 4.047832023187931116e-01 1.213283627497595107e+00 7.073686450731117015e-01 -5.922006974290835446e-01 -3.067634857367701126e-02 2.147771203317444255e-01 3.666696801260150851e-01 4.181699091449050387e-01 4.910406351862813823e-01 -1.726473804028628933e+00 1.978489757185379339e-01 1.535922133905656572e+00 -9.867087422247571293e-01 6.607632826572932272e-01 1.100826137030243901e+00 -1.423423505784324306e+00 -2.793987183085685500e-01 1.480995652530818996e+00 -3.291989337766910995e-02 -8.987379260689578597e-01 -1.664074667808131680e-01 -8.584502788632807357e-01 -5.204499440173416813e-01 4.717563314413095871e-02 5.512805587934477280e-02 1.341105517506197442e+00 4.703756489295702337e-01 -3.989843357694878856e-01 -1.619643430405212303e+00 -9.301562950763182513e-01 1.063012405490853185e+00 5.591661328409421872e-01 1.165477045585529670e+00 8.943583085819990786e-02 1.479072467207204644e+00 -2.271621252834175181e-02 1.615395453410993332e+00 7.486286835747661961e-01 5.982854706735571404e-02 9.294219879527564343e-01 3.638183264844527809e-01 7.570984123087918238e-01 -2.145076686981684799e-01 2.673669829604577441e-01 4.587254653221338185e-01 -1.077739171395397877e+00 -6.543782045387579460e-01 -9.198559407401354360e-01 -2.975075135910314472e-01 -6.015266035865899363e-01 1.471498510888616273e+00 -1.405317795825909988e+00 -7.443071730240556905e-01 4.381365837252875761e-01 8.821285982741046139e-01 1.385605660479535262e+00 -1.111629913407020220e+00 9.072410791468431546e-01 -1.045719164198564630e-02 1.872695024000935682e+00 2.580612856754694651e+00 -1.914921797371144929e-01 -2.280681821123504149e-01 1.292723522659072088e+00 1.681912983015669272e-01 -6.022110313046999952e-01 1.019000257937865556e-01 -3.576759605244056450e-01 1.162596381365506026e-01 -1.307051253320000717e+00 -1.510379250328141021e-01 7.776158172318459183e-01 -2.655800661156554332e-01 -3.301091043710221301e-02 8.066769986660914382e-01 4.285257993139623967e-01 1.025772544224497901e-01 4.423573070237444282e-01 2.459229523814802920e-01 -8.227170841739819274e-01 1.737027154936795492e-01 1.847353200707252951e-01 -4.285407117135305310e-01 6.131413059674677424e-01 -4.006833208789056799e-01 8.046525118695484549e-03 4.103357571648868496e-01 -1.408246796789361710e+00 1.743131468566910147e+00 2.198864169561921544e-01 1.205796060252367283e-02 1.020422592324260691e+00 -7.340397288110576957e-02 7.355685068771288249e-01 -1.373651058232638889e+00 -1.059892628657064240e+00 -1.417111961222280225e+00 2.422920401969769488e-01 1.719980739568393313e-01 1.354406863700299057e+00 -2.339738522958040079e+00 -1.693738515873199679e+00 1.914732049942157621e+00 -5.173574208793154869e-03 6.167048552435770992e-01 -4.270026776753135245e-01 -6.033551723060481820e-01 -3.359753338287213564e-01 4.080274205558745426e-01 -1.256093527112986052e+00 8.432206051388173584e-01 9.647859721975752256e-01 9.844163464566626498e-01 -8.335224032127822591e-01 -4.015472116125078927e-01 4.318332666940395970e-01 1.086329741987993147e+00 4.541807829985761713e-01 5.878005111151343720e-02 1.008349719322168880e+00 -2.451994438920883923e-01 -5.518528864044591753e-01 1.442037779990079649e+00 9.847423623644624424e-01 -1.780484972602387916e+00 5.476594168017647757e-01 -7.558185170493061378e-01 -4.132426466393234743e-01 -5.436757492343738951e-01 -2.013713873406662580e-01 -4.972868737226305846e-01 4.127407672607545930e-01 -3.477756698731886420e-01 -1.623656922771739841e-01 5.666711835891120484e-04 9.029031135345401138e-01 1.240658679339291970e+00 -2.896826175831589412e-01 -6.002497936511529131e-02 1.600290735310497148e+00 -9.713926794269336362e-01 1.863823688919920285e-01 1.279878290203485758e+00 -5.606995388930862134e-01 1.834708514314824235e-01