6.040759999999999685e+00 4.130770000000000053e+00 2.328609999999999847e+00 1.316817999999999955e+01 1.124418000000000006e+01 7.285099999999999909e-01 1.040917999999999921e+01 5.581590000000000273e+00 6.978119999999999656e+00 8.738929999999999865e+00 7.168660000000000032e+00 1.238907999999999987e+01 1.405017999999999923e+01 1.728400000000000075e-02 9.027540000000000120e+00 5.738310000000000244e+00 1.810899999999999954e+00 1.040038000000000018e+01 1.331048000000000009e+01 1.782499999999999973e+00 5.077189999999999870e+00 1.457408000000000037e+01 1.087738000000000049e+01 7.861580000000000013e+00 9.356740000000000279e+00 1.360078000000000031e+01 5.176099999999999923e+00 6.450929999999999609e+00 6.530129999999999768e+00 1.277468000000000004e+01 8.711850000000000094e+00 6.639520000000000088e+00 5.276629999999999932e-01 5.530479999999999841e+00 7.697300000000000253e-01 6.934420000000000250e+00 6.199670000000000236e+00 5.490739999999999510e-01 1.247457999999999956e+01 1.955030000000000046e+00 7.973390000000000200e+00 1.360097999999999985e+01 1.377317999999999998e+01 9.053720000000000212e+00 1.549979999999999913e+00 1.156508000000000003e+01 8.543039999999999523e+00 1.372527999999999970e+01 3.459989999999999899e+00 9.345029999999999504e+00 3.750239999999999796e+00 1.430547999999999931e+01 2.821239999999999970e+00 1.342207999999999934e+01 2.536490000000000133e+00 6.748330000000000162e+00 6.877760000000000318e+00 1.618759999999999977e+00 1.290478000000000058e+01 1.169828000000000046e+01 1.275287999999999933e+01 1.221288000000000018e+01 1.155108000000000068e+01 1.474199999999999955e-01 1.392357999999999940e+01 7.500339999999999563e+00 9.959580000000000766e+00 8.679029999999999134e+00 1.605910000000000115e-01 4.882460000000000022e+00 1.261758000000000024e+01 1.494238000000000000e+01 9.993380000000000152e+00 2.598250000000000171e+00 2.823409999999999975e+00 9.468560000000000088e+00 4.351110000000000255e+00 1.504307999999999979e+01 3.409650000000000070e+00 9.886380000000000834e+00 1.307408000000000037e+01 1.092290000000000066e-01 8.366099999999999648e-01 1.089798000000000044e+01 5.150830000000000020e+00 6.113439999999999763e+00 1.075698000000000043e+01 9.496309999999999363e+00 6.741419999999999746e+00 4.987269999999999648e+00 1.502867999999999959e+01 1.133647999999999989e+01 1.180707999999999913e+01 7.778649999999999842e+00 9.231490000000000862e+00 1.128407999999999944e+01 1.163627999999999929e+01 8.353279999999999816e+00 1.120118000000000080e+01 7.634540000000000326e+00 2.067520000000000024e+00 2.197010000000000129e+00 8.841219999999999857e+00 3.233400000000000052e+00 5.380370000000000097e+00 5.301700000000000301e+00 9.498359999999999914e+00 9.243240000000000123e+00 1.336317999999999984e+01 1.459168000000000021e+01 4.695730000000000182e+00 5.823050000000000281e+00 5.829049999999999621e+00 6.296260000000000190e+00 3.267059999999999853e+00 7.555780000000000385e+00 5.414329999999999643e+00 7.295810000000000350e+00 3.564659999999999940e+00 1.119567999999999941e+01 1.125277999999999956e+01 9.972580000000000666e+00 5.954010000000000247e+00 9.902380000000000848e+00 2.067829999999999835e+00 8.046720000000000539e+00 1.438568000000000069e+01 3.476850000000000218e+00 8.366590000000000416e+00 5.796409999999999840e+00 2.154490000000000016e+00 1.440427999999999997e+01 1.289198000000000022e+01 1.066388000000000069e+01 3.070059999999999789e+00 4.088930000000000398e+00 6.305920000000000414e-01 8.914389999999999148e+00 1.187157999999999980e+01 4.360780000000000101e+00 7.154599999999999849e-01 1.444058000000000064e+01 4.718210000000000015e+00 1.219427999999999912e+01 9.389179999999999637e+00 1.114687999999999946e+01 5.035770000000000302e+00 1.516757999999999917e+01 1.426797999999999966e+01 1.279927999999999955e+01 7.557999999999999829e+00 1.038268000000000058e+01 6.695579999999999643e+00 9.498300000000000409e+00 1.514338000000000051e+01 6.992600000000000371e+00 1.439519999999999911e+00 3.342350000000000154e+00 9.039239999999999498e+00 3.907740000000000102e-01 1.834119999999999973e+00 1.523778000000000077e+01 3.145760000000000112e+00 1.450267999999999979e+01 1.079087999999999958e+01 8.485910000000000508e+00 9.868579999999999686e+00 8.877919999999999590e+00 1.358088000000000051e+01 1.229457999999999984e+01 4.610520000000000174e+00 1.432858000000000054e+01 8.489720000000000155e+00 8.325710000000000832e+00 1.238138000000000005e+01 8.234619999999999607e+00 7.012459999999999916e+00 2.165200000000000014e+00 9.052270000000000039e+00 1.004038000000000075e+01 9.474859999999999616e+00 4.817099999999999937e+00 3.629599999999999937e+00 2.128680000000000128e+00 4.821729999999999627e+00 1.077167999999999992e+01 8.360709999999999198e+00 8.636039999999999495e+00 1.901289999999999925e+00 6.237359999999999793e+00 5.474630000000000329e+00 8.644899999999999807e+00 1.113557999999999915e+01 2.605989999999999807e+00 4.973510000000000097e+00 1.205360000000000043e-01 8.096330000000000027e+00 1.051538000000000039e+01 2.475039999999999907e+00 1.285740000000000105e+00 1.178368000000000038e+01 3.948069999999999968e+00 1.249279999999999974e-01 1.836270000000000069e+00 1.344427999999999912e+01 6.750490000000000101e+00 1.118928000000000011e+01 1.213777999999999935e+01 6.250720000000000276e+00 1.444037999999999933e+01 1.355338000000000065e+01 2.864689999999999959e+00 4.733649999999999802e-01 1.234838000000000058e+01 1.335608000000000040e+01 9.422250000000000014e+00 1.505670000000000064e+00 1.202668000000000070e+01 7.973700000000000010e+00 1.183877999999999986e+01 3.880749999999999922e+00 8.150130000000000763e+00 1.318398000000000003e+01 1.286407999999999952e+01 1.391147999999999918e+01 2.894470000000000098e+00 3.583569999999999922e+00 1.263237999999999950e+01 9.628840000000000288e+00 4.352070000000000327e+00 1.083388000000000062e+01 1.963370000000000060e+00 9.005869999999999820e+00 1.789279999999999982e+00 1.087467999999999968e+01 5.425729999999999720e+00 1.255987999999999971e+01 6.278510000000000479e-01 1.283877999999999986e+01 5.185509999999999842e+00 5.349260000000000126e-01 6.129500000000000171e+00 1.397938000000000081e+01 7.495779999999999887e+00 2.195250000000000146e+00 7.130410000000000359e+00 6.047679999999999723e+00 6.099079999999999835e+00 3.813379999999999992e+00 7.164000000000000368e-01 2.257039999999999935e+00 7.062710000000000043e+00 3.330950000000000077e+00 1.087418000000000085e+01 8.714570000000000149e+00 8.781209999999999738e+00 5.385159999999999947e+00 8.775479999999999947e+00 6.667139999999999844e+00 1.409577999999999953e+01 1.433267999999999986e+01 7.599450000000000038e+00 3.628289999999999793e+00 1.367197999999999958e+01 6.127200000000000202e+00 8.336529999999999774e+00 7.279239999999999711e+00 1.597609999999999975e+00 1.522358000000000011e+01 1.178739999999999899e+00 4.412600000000000300e+00 5.375049999999999883e+00 1.283667999999999942e+01 3.060140000000000082e+00 1.236317999999999984e+01 1.524388000000000076e+01 4.512170000000000236e+00 2.465829999999999966e+00 1.438199999999999923e+00 2.180070000000000174e+00 6.776760000000000339e+00 9.304570000000000007e+00 1.074248000000000047e+01 8.694770000000000110e+00 8.864750000000000796e+00 3.951069999999999860e-01 1.482900000000000107e+00 4.728699999999999903e+00 1.793770000000000087e+00 1.149268000000000001e+01 1.556769999999999987e+00 1.517057999999999929e+01 1.515398000000000067e+01 2.960920000000000218e+00 2.556760000000000144e+00 1.177128000000000085e+01 3.922620000000000218e+00 7.313159999999999883e+00 1.471198000000000050e+01 6.006099999999999994e+00 3.732599999999999807e-01 7.446729999999999627e+00 9.096600000000000241e-01 1.231067999999999962e+01 1.184018000000000015e+01 7.444149999999999601e+00 1.093399999999999928e+00 1.018398000000000003e+01 1.357728000000000002e+01 6.320969999999999978e+00 1.521167999999999942e+01 1.345869999999999900e+00 5.555550000000000210e+00 9.886380000000000834e+00 1.181967999999999996e+01 7.656450000000000422e+00 8.069119999999999848e+00 4.189709999999999823e+00 3.171549999999999869e+00 8.515119999999999578e+00 1.310378000000000043e+01 1.270627999999999957e+01 3.550860000000000127e+00 1.393899999999999917e+00 3.888259999999999827e+00 1.460720000000000018e+00 2.268759999999999888e+00 1.303417999999999921e+01 4.761040000000000272e-01 5.510040000000000049e+00 1.204637999999999920e+01 7.025199999999999889e+00 1.097447999999999979e+01 1.463087999999999944e+01 2.644229999999999858e+00 7.280350000000000321e+00 9.721280000000000143e+00 7.301859999999999573e+00 1.512288000000000032e+01 1.523687999999999931e+01 1.077608000000000033e+01 1.302417999999999942e+01 5.698660000000000281e+00 7.241920000000000357e+00 6.608900000000000219e+00 8.042939999999999756e+00 8.967299999999999827e+00 3.199850000000000083e+00 1.286497999999999919e+01 1.106808000000000014e+01 4.330400000000000027e+00 1.492998000000000047e+01 5.223449999999999704e+00 1.338588000000000022e+01 1.492848000000000042e+01 1.221697999999999951e+01 4.428099999999999703e+00 2.331170000000000186e+00 1.079637999999999920e+01 1.333187999999999995e+01 9.512549999999999173e+00 6.170679999999999943e+00 3.717379999999999907e+00 1.061658000000000079e+01 3.824770000000000003e+00 2.578719999999999901e-01 6.289589999999999570e+00 7.085700000000000331e-01 1.112878000000000078e+01 2.813530000000000086e+00 8.012610000000000454e+00 9.495810000000000528e+00 1.032108000000000025e+01 1.015307999999999922e+01 4.963260000000000005e+00 6.602800000000000225e+00 9.401229999999999976e+00 6.460029999999999717e+00 1.449009999999999909e+00 1.008000000000000007e+00 2.596660000000000079e-01 6.869399999999999729e+00 9.747980000000000089e+00 1.219378000000000029e+01 1.457427999999999990e+01 1.497017999999999915e+01 7.804529999999999745e+00 1.437428000000000061e+01 3.319539999999999935e+00 1.219218000000000046e+01 1.888589999999999991e+00 4.354870000000000019e+00 1.203068000000000026e+01 1.014638000000000062e+01 1.441807999999999979e+01 5.986609999999999765e+00 8.351699999999999680e-01 5.834869999999999779e-01 3.788330000000000197e+00 1.373967999999999989e+01 8.008589999999999876e+00 7.199690000000000367e+00 1.762640000000000040e-01 3.995519999999999960e+00 9.138239999999999696e+00 1.392928000000000033e+01 1.474427999999999983e+01 3.435750000000000082e+00 8.531510000000000815e+00 3.484049999999999869e+00 1.080958000000000041e+01 5.131219999999999892e+00 9.571979999999999933e+00 1.061617999999999995e+01 2.857540000000000191e+00 1.318458000000000041e+01 1.116497999999999990e+01 1.213488000000000078e+01 5.679070000000000285e+00 4.945990000000000109e-01 1.367408000000000001e+01 1.170177999999999940e+01 7.201229999999999798e+00 1.184238000000000035e+01 1.289648000000000039e+01 8.174419999999999575e+00 1.154588000000000036e+01 4.994040000000000035e+00 7.481989999999999696e+00 1.194027999999999956e+01 5.383759999999999657e+00 1.343407999999999980e+01 1.283297999999999917e+01 1.164108000000000054e+01 2.072090000000000209e+00 2.463589999999999947e+00 8.016429999999999723e+00 6.505729999999999791e+00 6.573200000000000154e-01 1.098728000000000016e+01 7.628779999999999895e+00 6.882179999999999964e+00 9.402099999999999902e-01 2.176349999999999785e+00 8.430400000000000116e-01 1.319717999999999947e+01 8.406869999999999621e+00 2.791450000000000209e+00 1.468608000000000047e+01 1.541709999999999914e+00 1.308197999999999972e+01 1.229198000000000057e+01 1.511857999999999969e+01 6.828969999999999985e+00 1.462697999999999965e+01 1.304658000000000051e+01 3.141150000000000109e+00 1.060238000000000014e+01 4.254979999999999762e+00 4.622910000000000075e+00 1.042318000000000033e+01 8.442059999999999675e+00 9.912100000000000355e-01 8.883160000000000167e+00 1.395767999999999986e+01 7.039480000000000182e+00 3.265740000000000087e+00 2.408729999999999816e+00 3.829190000000000094e+00 4.258259999999999934e+00 1.339188000000000045e+01 1.784479999999999955e-01 1.372747999999999990e+01 6.092450000000000365e+00 1.189527999999999963e+01 1.270707999999999949e+01 1.059248000000000012e+01 5.430399999999999672e+00 6.063570000000000348e+00 1.353007999999999988e+01 1.448227999999999938e+01 2.142020000000000035e+00 4.465519999999999712e+00 6.190870000000000317e+00 3.105459999999999887e+00 1.050618000000000052e+01 4.740300000000000402e+00 3.792240000000000055e+00 1.881580000000000030e+00 1.177148000000000039e+01 9.028829999999999245e+00 1.241347999999999985e+01 6.023109999999999964e+00 4.984549999999999592e+00 7.370359999999999800e+00 6.024399999999999977e+00 8.444359999999999644e+00 8.664300000000000779e+00 1.081537999999999933e+01 1.960020000000000095e+00 3.803329999999999878e+00 7.740500000000000158e-01 1.201197999999999944e+01 1.100587999999999944e+01 1.238358000000000025e+01 7.546140000000000292e+00 1.417018000000000022e+01 1.467908000000000079e+01 1.024089999999999945e+00 9.728279999999999816e+00 8.983829999999999316e+00 3.897499999999999964e+00 1.386257999999999946e+01 7.893979999999999997e+00 7.377360000000000362e+00 1.379999999999999893e+00 1.025187999999999988e+01 7.585899999999999865e-01 7.803329999999999878e+00 5.986620000000000275e+00 1.514057999999999993e+01 5.974549999999999805e+00 3.063029999999999919e+00 2.256470000000000198e+00 1.248527999999999949e+01 1.089207999999999998e+01 2.932069999999999954e+00 8.533749999999999503e+00 1.380498000000000047e+01 5.411170000000000258e+00 1.119538000000000011e+01 1.403557999999999950e+01 9.822279999999999234e+00 8.742879999999999541e+00 1.011727999999999916e+01 3.989069999999999894e+00 2.791430000000000078e+00 1.960949999999999971e+00 1.246348000000000056e+01 5.016230000000000189e+00 6.875840000000000174e+00 1.501468000000000025e+01 8.922399999999999776e-02 1.491057999999999950e+01 8.622100000000000597e-02 1.197108000000000061e+01 9.227289999999999992e+00 9.347440000000000637e+00 1.120640000000000081e+00 6.242840000000000167e+00 6.789150000000000240e+00 1.137898000000000032e+01 1.236777999999999977e+01 1.244598000000000049e+01 1.283117999999999981e+01 1.661310000000000064e+00 7.853939999999999699e+00 1.149769999999999959e+00 5.112210000000000143e+00 1.458747999999999934e+01 1.699170000000000069e+00 5.116999999999999993e+00 5.836750000000000327e+00 9.414949999999999264e+00 6.133560000000000123e+00 5.451819999999999666e+00 2.636019999999999808e+00 4.206070000000000420e+00 1.162898000000000032e+01 4.985240000000000227e-01 1.431217999999999968e+01 7.753910000000000302e+00 1.139268000000000036e+01 1.452588000000000079e+01 7.934590000000000032e+00 1.580009999999999915e+00 9.709680000000000533e+00 5.283870000000000289e+00 9.763680000000000803e+00 1.065708000000000055e+01 4.361170000000000435e+00 1.176097999999999999e+01 1.475318000000000040e+01 2.316840000000000011e+00 1.008059999999999956e+00 5.723499999999999588e+00 5.419209999999999638e+00 4.971079999999999721e+00 1.083339999999999970e+00 1.359548000000000023e+01 1.274587999999999965e+01 1.141647999999999996e+01 1.092618000000000045e+01 6.901729999999999698e+00 6.961129999999999818e+00 2.854000000000000092e+00 1.461017999999999972e+01 1.310158000000000023e+01 9.304840000000000444e+00 2.744180000000000064e+00 7.711940000000000239e+00 6.760419999999999874e+00 1.321757999999999988e+01 1.680369999999999919e+00 6.621660000000000323e+00 1.339827999999999975e+01 8.550430000000000419e+00 4.217889999999999695e+00 4.503849999999999909e+00 6.514549999999999841e+00 7.414760000000000240e+00 3.869429999999999925e+00 8.566319999999999268e+00 2.564869999999999983e+00 8.096000000000000085e+00 7.883429999999999715e+00 1.080358000000000018e+01 7.989329999999999821e+00 2.571889999999999787e+00 1.035567999999999955e+01 9.739979999999999194e+00 9.038169999999999149e+00 1.996830000000000105e+00 2.094040000000000123e+00 9.752380000000000493e+00 1.242448000000000086e+01 4.709909999999999819e+00 8.571979999999999933e+00 5.249889999999999723e+00 5.248629999999999685e-01 1.188350000000000017e+00 8.806020000000000181e+00 1.099618000000000073e+01 7.992440000000000211e+00 1.406188000000000038e+01 5.045790000000000219e+00 4.346160000000000245e+00 5.184140000000000414e-01 7.582760000000000389e+00 3.276689999999999880e+00 1.110850000000000032e-01 1.183527999999999913e+01 1.367420000000000080e+00 1.499020000000000019e+00 1.097287999999999997e+01 1.377037999999999940e+01 1.135577999999999932e+01 1.120298000000000016e+01 3.135730000000000128e+00 9.014979999999999549e+00 2.503530000000000033e+00 3.931750000000000078e+00 8.343329999999999913e+00 4.571089999999999876e+00 5.573879999999999946e+00 1.471610000000000085e+00 1.324427999999999983e+01 7.863310000000000244e+00 2.431869999999999976e+00 5.799780000000000157e+00 1.731970000000000010e+00 1.211608000000000018e+01 2.236470000000000125e-01 8.173730000000000828e+00 1.092178000000000004e+01 5.640690000000000204e+00 9.964380000000000237e+00 6.474590000000000067e+00 1.263217999999999996e+01 1.243678000000000061e+01 2.785359999999999836e+00 5.405859999999999665e+00 1.053658000000000072e+01 6.477660000000000196e+00 5.870689999999999742e+00 9.428599999999999426e+00 8.922129999999999228e+00 8.376749999999999474e+00 1.286257999999999946e+01 1.337598000000000020e+01 5.060539999999999594e+00 8.031990000000000407e+00 9.984880000000000422e+00 1.017637999999999998e+01 1.943880000000000052e-01 2.104350000000000165e+00 1.390667999999999971e+01 3.251939999999999831e+00 1.483297999999999917e+01 9.436180000000000234e+00 4.608039999999999914e+00 1.041688000000000081e+01 1.269918000000000013e+01 2.832019999999999982e+00 1.177417999999999942e+01 7.825050000000000061e+00 1.093190000000000106e+00 1.609680000000000000e+00 5.907980000000000231e+00 1.411567999999999934e+01 1.390548000000000073e+01 1.369327999999999967e+01 1.015357999999999983e+01 3.099740000000000162e+00 5.809560000000000279e+00 8.118880000000000763e+00 1.511257999999999946e+01 7.128720000000000390e+00 4.610820000000000363e+00 1.670090000000000074e+00 9.647280000000000300e+00 1.519618000000000002e+01 7.792959999999999887e+00 9.142079999999999984e+00 4.853189999999999671e+00 1.958250000000000046e+00 1.438220000000000054e-01 4.112639999999999851e+00 5.769599999999999618e+00 1.154948000000000086e+01 2.261299999999999866e+00 1.221978000000000009e+01 2.667440000000000033e+00 6.225929999999999964e+00 1.859660000000000091e+00 7.450370000000000381e+00 3.153329999999999966e+00 6.133469999999999978e+00 5.670930000000000248e+00 9.137389999999999901e+00 5.443179999999999907e+00 7.445680000000000298e+00 1.676150000000000029e+00 2.344539999999999846e+00 8.086520000000000152e+00 1.324047999999999981e+01 2.941790000000000127e+00 1.438217999999999996e+01 3.758560000000000123e+00 1.324297999999999931e+01 1.436717999999999940e+01 1.159267999999999965e+01 7.995370000000000310e+00 8.117950000000000443e+00 2.455090000000000217e+00 3.878779999999999895e+00 9.772679999999999367e+00 8.545389999999999375e+00 7.695100000000000051e+00 5.218320000000000292e+00 1.301250000000000018e+00 1.016328000000000031e+01 1.728799999999999892e+00 1.308727999999999980e+01 1.448418000000000028e+01 9.599159999999999471e+00 1.363578000000000046e+01 9.973679999999999879e+00 4.999399999999999955e-01 3.520809999999999773e-01 1.469528000000000034e+01 1.752099999999999991e+00 1.310318000000000005e+01 3.845720000000000027e+00 8.669650000000000745e+00 1.084628000000000014e+01 9.299889999999999546e+00 1.464527999999999963e+01 7.494049999999999656e+00 5.615890000000000271e+00 9.113789999999999836e+00 6.216960000000000264e+00 1.282548000000000066e+01 1.470218000000000025e+01 1.710879999999999956e+00 6.060489999999999711e+00 1.037798000000000087e+01 1.944430000000000047e-01 6.411410000000000053e+00 1.313300000000000058e-02 8.648149999999999338e+00 8.125939999999999941e+00 1.148658000000000001e+01 1.109398000000000017e+01 9.065690000000000026e+00 1.013477999999999923e+01 2.154360000000000053e+00 6.160870000000000068e+00 8.018480000000000274e+00 6.960160000000000124e+00 4.023419999999999774e+00 1.248318000000000083e+01 1.187317999999999962e+01 8.743460000000000676e+00 5.864869999999999806e+00