-7.791024841766216559e+04
-7.791052649940524134e+04
-7.791210685909153835e+04
-7.791332098979743023e+04
-7.791230736164317932e+04
-7.790233767480847018e+04
-7.791133813691361865e+04
-7.790121145195790450e+04
-7.791215534350663074e+04
-7.791045781446568435e+04
-7.791182369789667428e+04
-7.791276398304277973e+04
-7.791337115505199472e+04
-7.791029550355115498e+04
-7.790159332880098373e+04
-7.791127670286189823e+04
-7.791166124024552118e+04
-7.791410403899771336e+04
-7.791304007619684853e+04
-7.791146306810124952e+04
-7.791073406095454993e+04
-7.791245846937732131e+04
-7.791252801410392567e+04
-7.791438052518303448e+04
-7.791185420073654677e+04
-7.791165774575233809e+04
-7.791193034652994538e+04
-7.791133492156601278e+04
-7.791196242331957910e+04
-7.790560250255248684e+04
-7.791201154426242283e+04
-7.791056501384220610e+04
-7.790268155255456804e+04
-7.790569184618955478e+04
-7.791157669463864295e+04
-7.790638523048450588e+04
-7.791330990766918694e+04
-7.791326254728017375e+04
-7.791115112881126697e+04
-7.791234169216836744e+04
-7.791299940369038086e+04
-7.791259037055725639e+04
-7.791406129778115428e+04
-7.791069233969558263e+04
-7.790286894510187267e+04
-7.791272930634049408e+04
-7.790697749968343123e+04
-7.790133292600573623e+04
-7.791105652863827709e+04
-7.790350852345487510e+04
-7.790066803912229079e+04
-7.790135474818428338e+04
-7.790558738518402970e+04
-7.791158763746032491e+04
-7.790496154087550531e+04
-7.790439608746061276e+04
-7.791339043639237934e+04
-7.791032358374656178e+04
-7.791125414781097788e+04
-7.790975924571970245e+04
-7.791228406798289507e+04
-7.791362770501527120e+04
-7.791280513746741053e+04
-7.790554893169303250e+04
-7.791189066728050238e+04
-7.791275118312584527e+04
-7.791221494464801799e+04
-7.791007060469346470e+04
-7.791244785910441715e+04
-7.790558963006368140e+04
-7.791298114874585008e+04
-7.791329608103622741e+04
-7.791262822061109182e+04
-7.791178149362865952e+04
-7.791227807004151691e+04
-7.791243519392474263e+04
-7.790052543736512598e+04
-7.790222055111013469e+04
-7.791103580342943314e+04
-7.791209863676188979e+04
-7.790059373382586637e+04
-7.791229206091853848e+04
-7.791075824403135630e+04
-7.791213844634138513e+04
-7.791377252314430370e+04
-7.791255820776340261e+04
-7.790259692432411248e+04
-7.791175034491655242e+04
-7.791352788680982485e+04
-7.791139118542600772e+04
-7.790071514399221633e+04
-7.790127352772600716e+04
-7.791061218835347972e+04
-7.791229012035904452e+04
-7.790616439988625643e+04
-7.791307598301333201e+04
-7.791171674482684466e+04
-7.790174230971527868e+04
-7.790256746490228397e+04
-7.791047147060699353e+04
-7.790670691569453629e+04
-7.790491192346700700e+04
-7.791083528375020251e+04
-7.790103610404531355e+04
-7.790983283068193123e+04
-7.791012081749956997e+04
-7.791075551273956080e+04
-7.791212012592656538e+04
-7.791343328199665120e+04
-7.791214294352644356e+04
-7.791260436475583992e+04
-7.790201390623467159e+04
-7.790306721005492727e+04
-7.791093692525303049e+04
-7.790091208242042921e+04
-7.790487926303519635e+04
-7.791073525173444068e+04
-7.791035728398346691e+04
-7.791214217652814114e+04
-7.791054335054378316e+04
-7.790565990838276048e+04
-7.791119296273552754e+04
-7.791249006206050399e+04
-7.791247227200274938e+04
-7.790259387722762767e+04
-7.791336134480015608e+04
-7.791231839513719024e+04
-7.790631079230396426e+04
-7.791061711695675331e+04
-7.791190218683995772e+04
-7.791326607747134403e+04
-7.791064712659933139e+04
-7.791288866131014947e+04
-7.791025917371780088e+04
-7.791291491509832849e+04
-7.791280249833423295e+04
-7.791359156613376399e+04
-7.791065182768934756e+04
-7.790088707397232065e+04
-7.791233633301817463e+04
-7.791330369147170859e+04
-7.790521034258921281e+04
-7.791218657233657723e+04
-7.791197486147329619e+04
-7.791223051945072075e+04
-7.790633364593250735e+04
-7.791261203023615235e+04
-7.791045012190344278e+04
-7.791098109912649670e+04
-7.791121264810343564e+04
-7.790183330690766161e+04
-7.790152569570428750e+04
-7.790506907932538888e+04
-7.791175904279519455e+04
-7.791129038884591137e+04
-7.790977224645308161e+04
-7.791234706931005348e+04
-7.790606698325634352e+04
-7.791377993232595327e+04
-7.791076901132977218e+04
-7.791186987172494992e+04
-7.791019956602439925e+04
-7.791129208765056683e+04
-7.791108285949991841e+04
-7.790199126295570750e+04
-7.790222071045062330e+04
-7.790109702714937157e+04
-7.791193958282902895e+04
-7.791239919396059122e+04
-7.791311188909172779e+04
-7.791068284706010309e+04
-7.790134862368566974e+04
-7.791166263518240885e+04
-7.791354358303875779e+04
-7.791252925296862668e+04
-7.791114970109624846e+04
-7.791465289299818687e+04
-7.790123221770439704e+04
-7.791159950379526708e+04
-7.791167653403815348e+04
