-2.710042200592607031e+00 5.995509677541496218e-01 -5.030101498327457232e-01 -4.833319530509052608e-01 1.269901380671728974e+00 1.787230519413932406e+00 1.046091459967093185e+00 9.524338773690868010e-01 -1.361158066939265776e+00 1.501340279307152636e+00 -2.489142254686456557e+00 1.579935824120668242e+00 2.111348952923962630e-01 -7.557835500434221254e-01 8.900080016735019417e-02 -3.764059343819826098e-01 -1.576909121229011779e-01 7.550209607827481628e-01 8.759507510874986469e-01 -3.779779069847339357e-01 6.829200230914925784e-01 -1.766805159991661212e+00 -1.344403728914129292e+00 7.383663815685158616e-01 -1.901701183822981811e+00 1.784458355756283865e+00 1.435240296890383904e+00 -1.352523787589315629e-01 7.799591208467421266e-01 -1.931658137672664921e+00 -7.623162094956146273e-01 -6.569842749184581221e-01 1.343294040697990077e+00 -4.271677425119125293e-01 4.171440388987524006e-01 1.102153340591808028e+00 1.157008345292853457e+00 -1.567967852136228135e+00 1.004629332740256897e+00 1.203878531356175063e+00 2.338058564013588414e-01 -1.796113167349793205e+00 -1.006444017501496369e+00 8.099248164478961565e-01 9.661995648324993580e-01 1.679857128757965778e+00 1.176699397591563168e+00 -1.248430096396989208e+00 -6.810703713243690949e-01 1.139891481692008934e+00 9.444752839857760707e-01 6.773736388934961106e-01 -1.604716118437509831e+00 3.109033221230866673e+00 2.114783947031381173e-01 -2.741145866547012311e+00 -7.725954807841322047e-01 1.540291466979120116e-01 -7.296662819721961846e-01 -1.326326301092826787e+00 -1.223057934083495280e+00 -5.122614939924114985e-01 -1.461492290778398095e-01 -4.943789558068444334e-01 8.686601303607053293e-01 -2.166230182879421040e+00 -1.690273696966645200e+00 -1.447829447449938467e+00 4.681593578213405493e-01 -8.568510525647671239e-02 -8.091853671175867069e-01 -1.434166604121478727e-01 6.748714410900980010e-01 5.289350993716102067e-01 1.505839710211331228e+00 -1.264708780297969737e+00 9.543066690665746865e-01 1.455602407169659607e+00 -6.816817797066626605e-01 5.987539257082664657e-01 -1.513803960022064576e-01 1.428368766013522695e+00 3.751337524326183170e-01 8.757574041137877741e-01 2.156889878543021499e+00 1.639561768242167261e+00 -2.666897543317945374e-01 4.549618842035415556e-01 1.055256415053398955e+00 9.830870860123994831e-03 4.725076078471387442e-01 1.089156927257841190e+00 -1.762573638059033998e+00 1.638673709136851064e+00 -1.254287069882542571e-01 -1.803783282934561666e-02 9.474155978040722792e-02 5.719640569944501873e-01 -4.067531817238111413e-01 8.392559637363925518e-01 -8.913912552886150975e-02 -2.572064966478105341e-01 4.676518220153492722e-01 7.998455770018616517e-01 -2.803027182548023521e-01 -3.228760763598020889e-01 1.106860002427916163e-02 -1.063819731950231412e-01 -7.311739769906021591e-01 2.586355159029775752e+00 4.345354963399206127e-01 -2.871567656287218329e-01 1.371903222159118974e+00 1.987720018297379695e-02 -4.758238169786870309e-01 -8.579447999399885116e-01 6.310552116141954215e-01 -2.379082575225526242e+00 -3.873027847008908564e-01 1.941152193990818953e+00 -1.952732443586487343e-01 -7.579916136208555422e-01 -1.934555771174955918e+00 -4.482806149763424730e-01 1.465695530573912997e+00 1.006901159681360847e+00 -5.795272146788683632e-01 5.760269145457547202e-01 4.158692858460142361e-01 -8.050114379005331999e-01 -7.096260738353223907e-01 3.018902164020386691e-01 1.550786710951038150e-01 -1.014253486889125977e+00 -2.117428069741014163e+00 -1.038082472957655433e+00 -9.534890581937011111e-01 4.370423221293914806e-01 -3.031384356679590830e+00 3.642194186107681753e-01 -8.102384910595018530e-01 -6.826474861338680533e-01 -8.768490946063101088e-02 -9.976909531756761318e-02 -2.871048293405707441e-01 -8.513951712055288501e-02 1.117728570609712424e+00 -2.162301536924229772e+00 1.778540190010433342e-01 7.460658077317460224e-01 -2.954100074586721303e-01 -7.605832858216624581e-01 8.228749499211340801e-01 7.582415248687904841e-01 5.140766929743257885e-01 -1.317227680473565532e-01 -4.820618279842400211e-01 8.745824098719536810e-01 -5.019143455748252824e-01 -1.162578383641889257e+00 -3.274881215917537225e-01 8.329135659338625652e-01 3.337652133685888728e-02 -1.009235721544786024e+00 -4.129279435863684178e-01 8.057220908730561293e-02 2.836250980344477424e-01 -5.734444983170936538e-01 -1.461488177012999934e+00 -1.618931234770665473e+00 -2.789024953574219534e-01 -1.102319433869756587e-01 1.282490017010608385e+00 7.188918161738816481e-01 3.387310424247776952e-01 -1.012917027355416111e-01 4.649501065901430752e-01 1.145331936431004172e+00 2.117740715911269778e+00 1.532907258089519498e-01 -1.137310608125372102e+00 -1.535138975817992302e-01 4.946756611361828870e-01 -7.346763340064146330e-01 -1.233648308880244571e+00 -1.317746014913727004e+00 -9.472623600429929125e-01 -2.345959564681325826e+00 3.065207735782818910e-01 -1.028970996821525263e+00 2.902246061743593564e-01 -1.579449371362342536e-01 8.766068966684966712e-01 4.066415958373875705e-01 8.247420851911995143e-01 -2.036287132587419890e+00 -2.296920910032527741e-01 6.659471412795816558e-01 5.997345445350400484e-01 -1.169531161385363172e+00 -7.008123314698800899e-01 2.845285837600067813e-01 -2.968441689205868483e-01 -3.320014364541509083e-02 -2.421009557942348955e+00 -1.335062910357054600e+00 -3.084501295499936235e-01 -4.436284605317592639e-02 -8.502438311147338945e-01 2.451637055551923350e+00 5.478759037058401615e-01 7.323165753299260006e-01 1.789738887865427897e+00 -1.419750941725165250e+00 -8.627116255950438850e-01 9.403142102855917284e-02 -1.417739824666166104e+00 4.670152168199923071e-02 -1.302459262694364850e-01 -2.000565250752966151e-01 -1.405549709350228271e+00 1.373100842110642317e+00 6.023673543898279137e-01 1.895592242206794453e-01 -1.901938239554047838e+00 -9.173804824118250156e-01 2.888655209309600735e-01 -4.717748433856010504e-01 4.180212993698984580e-01 8.676337458938776503e-01 -1.042478031285531959e+00 2.019041199597209957e+00 1.063079254178572186e-01 7.708702704203015399e-01 -4.673782566163751651e-01 8.999571432888214817e-01 3.296375640122641837e-01 1.537245223701822372e+00 -7.265362207249123072e-01 -4.280120928598737939e-01 -8.040308190737597283e-01 -7.978185191019447897e-01 3.180367455896050410e-01 2.911999285281828609e+00 9.992588120130294627e-01 6.687851251836001154e-01 1.417466773487866760e+00 9.705437010928993358e-01 9.393808997608964484e-01 -2.609335680984946060e-01 -7.318429780884689873e-01 5.951188997583650719e-01 1.361949966778400967e+00 -1.050916392558396861e+00 -4.001701286454919515e-01 2.111662627535567938e-01 7.896321259597137432e-02 -9.494873929026934611e-01 -7.044926088391607610e-01 1.314108417860451627e+00 -5.304114269288555672e-01 1.523556155118949595e+00 3.009296521815809644e-01 -6.348064514365934219e-01 1.641315260743109739e-01 1.100571083575561548e+00 -1.148180718969192604e+00 -2.504805416439745525e+00 4.690875261392882245e-01 6.686015484027096889e-01 6.413627650398250335e-01 2.985287558511112715e-01 1.473356904407210788e+00 1.439298012234941027e+00 -9.031000600529745514e-02 -1.188381462880834682e+00 -8.166030003510466040e-02 -6.461167351780113810e-01 1.608014329845441348e-01 3.535585955815762627e-01 -1.276629958201006332e+00 -1.429898572520943434e+00 -1.924869396324440318e+00 3.063521091969594740e-02 7.972955566757106149e-01 1.594320633276495869e-01 -6.405996615584763632e-01 8.916020857652681708e-02 -3.584313506956329221e-01 7.002862837195973633e-02 6.461002801164188458e-01 4.034122899998742739e-01 -2.999454338100840389e-01 6.236118673469972506e-01 -2.087188808740885637e+00 1.222148277709838964e-02 1.531529146681154252e+00 6.130903981206662356e-01 1.007059539649188151e+00 8.110057083062485184e-01 -7.540516548108195938e-01 -6.297552617483939130e-01 -7.713346116896127036e-01 -8.559557943700042415e-01 -3.913250188188890921e-01 -1.850685350679718844e-01 5.690623097267611952e-01 8.592138965653042249e-01 -1.899158362586277349e+00 1.423450245259412217e-01 6.980946752037563430e-01 1.377370930593876386e-01 5.874611254697906237e-02 7.311852898454469507e-01 1.596124005182890437e+00 -9.767621717128116207e-03 -1.048780834096105119e+00 -1.222659413060553701e+00 -6.660906088478406317e-02 -6.389325581308938906e-01 6.478409171004925193e-01 1.698570647553950597e+00 -1.845390420391681774e+00 -6.907639452643312694e-01 1.035486686991450522e+00 9.402936414586011704e-01 -1.349472916325945349e+00 3.541370938406849245e-01 -9.187169419455347708e-01 -1.518846922179467818e+00 2.082576249288259351e+00 2.882253161908798766e-01 4.362493938489065415e-01 1.163259211815275584e+00 1.537602092850108293e-01 -2.122245289022196002e-01 6.158754172951840244e-01 9.502808354038532190e-01 3.960450503925410093e-01 -6.578908459680656851e-01 -8.825723707164252752e-02 6.140859293470078972e-01 2.090127065676483098e-01 -1.472261100149290458e+00 -2.931366378555437802e-01 9.532077794846055552e-01 1.206493857708020867e+00 -2.867489886336345162e-01 7.965823325998138138e-01 1.796068430151088746e+00 2.113455715028467630e+00 3.946556261293306944e-01 8.589161627946163557e-01 -2.390750756556579426e-01 3.812329238559854228e-02 -5.524139011606259420e-01 -7.615119683602848966e-01 7.855456142573701284e-01 -1.413713991003444637e+00 -6.642548410389358116e-02 7.948653497667794721e-01 -3.874292829868826449e-02 -6.425454725917805199e-01 1.650975924559887398e+00 4.896635522192653855e-01 2.316157905475421108e-01 -2.014752599169684355e-01 7.694407369444594691e-01 -1.273644907184005692e+00 1.798821053423096117e-01 -1.363723513885659600e+00 -1.226918702909617798e+00 -5.290415430512862560e-01 -7.034384564558961161e-02 -2.934785946042612892e-01 -9.181358725830522649e-02 -7.280464868466920425e-01 5.891194871459020099e-01 7.877495640694054391e-01 -6.543643205805391716e-01 6.979357810152545527e-01 3.198637716470389414e-01 -7.942966217004912011e-01 4.270648983769598783e-01 2.179035820343050156e-01 -2.803947637555849193e-01 1.217335172194054932e-01 -7.139738096404458778e-01 7.008339287382202576e-01 -1.201511059369565038e+00 6.637735304873574327e-01 -5.627877890532998473e-01 4.252697540013614108e-01 -1.403642464867531636e-01 -1.075430834786385709e-01 3.825267030736896889e-01 -2.506157302593698191e-02 -3.254507792783417619e-01 -4.025422286181748466e-01 3.451989100719499715e-01 -6.026758867946858667e-01 -3.830733196509630289e-01 2.115848383828141110e-01 -1.251713395405352536e+00 -3.749182939698925132e-01 4.256168529568266079e-01 -2.331116584904284472e-02 -1.018321486647178059e-01 3.183716060930108949e+00 1.023304284985634138e-01 -7.516245332259369194e-01 -5.201583808947508603e-01 -7.922747060073220826e-01 -2.681773433218171743e+00 -3.142083726659926080e-01 -1.272135669503575428e-01 -9.142283096755262628e-01 7.662628531744226645e-01 1.531681356000883953e+00 -1.224328059150160408e+00 8.810286802507859560e-01 -3.653393912404025445e-01 7.841171092228778061e-01 5.759924617605455266e-01 7.086218008575098648e-02 9.954330101927907348e-01 -8.950663904511482194e-01 2.037733635345529315e+00 -1.635731852656530538e+00 -7.806615462884687329e-01 -1.030184557613966545e+00 -1.503903669370847629e+00 2.367590257365242423e-01 -9.076987355473823404e-01 -1.109293808881570698e+00 -1.443016341934154068e-01 3.189382772766000240e+00 -4.574255154563323100e-01 -1.547485414219057775e-01 -5.150511411530022121e-01 6.814966602637478887e-02 -7.365799789443883139e-01 -1.420644657257903898e+00 -5.924372389394746419e-01 1.074741779082203141e+00 -2.889729930519855938e-01 -2.048454622193668639e-01 1.292647932219881911e-02 4.047076118796029687e-01 -3.278928132627924319e-02 -3.192744747537602790e-02 -5.048757424407868122e-01 3.748216204830370213e-01 -9.822612476087299038e-01 -6.430535226184466713e-02 -2.192112452102280284e-01 1.345674882422143837e+00 -8.347020254406890549e-01 5.585177005700656672e-01 2.296129010193392606e-01 -4.727631755224960264e-01 6.071084690111451243e-01 -7.895560212998488092e-01 -5.393964047789939764e-01 9.278916672246608766e-01 1.485734710269437153e+00 -2.824228500968511968e-01 1.219212077656940674e-01 5.887235372263344146e-01 7.361356922813927506e-01 1.701741332234540383e-01 5.905017123196657503e-01 7.369481609475186934e-01 1.743348983912335060e+00 7.390178991634408501e-01 4.225263867014993902e-01 -1.806423806099471063e+00 -1.002858870957046955e+00 -9.134513222359589291e-01 6.498036974160638080e-01 -5.148706496961603651e-01 5.274135203949856798e-01 1.286945224936757448e-01 5.400546072426909427e-01 -2.923771339189183971e-01 -4.599508531900946551e-01 2.566413681262456614e-01 -2.276536174043562344e+00 -6.108427395512761038e-01 -1.200699104924114025e+00 -4.840955707529287499e-01 3.282635663692967665e-01 -1.486416566884173340e-01 -4.387330797080130247e-03 -1.084773196005484719e+00 -3.881579336830222049e-01 9.767817120984524371e-01 2.759508686842808145e-01 -1.058680096305972596e+00 -1.294344860446600687e-01 -1.703359070477345583e+00 -4.843727356966261999e-01 -6.804111404193226020e-01 2.033640438774413806e+00 3.683213569333546600e-01 3.028245553680835589e-01 5.729359340697528502e-01 -2.342429439749076081e-01 4.049025015153381868e-02 4.639772010734909968e-01 -2.245549750403003308e+00 -6.874595632083025931e-01 -7.728021974953869222e-01 3.091376425921520399e-01 7.001165908969254614e-01 3.372269469510951745e-01 -4.099644898377077795e-01 -7.411673415839512558e-01 -1.017765614097759119e+00 9.894099434292886741e-01 -3.711629403820964623e-01 -1.380949906490228640e-01 2.097742673869726626e-01 1.256444739833849411e+00 1.201333653236771770e+00 7.114037347079790741e-02 -5.866342586247712543e-01 -3.173934555254762646e-01 3.549855579540442951e-01 2.732542954658222500e-01 3.953914759149169122e-01 1.201879755593370458e+00 1.005878888979931496e+00 -1.867689085732115561e+00 8.335306307435783602e-01 4.428797552293039508e-01 -3.030955496636837387e-01 -5.775366664468597339e-02 4.158749422734365764e-01 -5.052449528852668292e-01 4.189124437992632344e-01 1.597719631936680706e-01 1.078556782268271563e+00 -2.808375077565560818e-01 7.149981372245742262e-02 -6.900630624846290084e-01 7.423305087502657384e-01 8.017286531128446914e-01 -1.701299102454244261e-02 -8.471230258395956447e-01 -1.164780790791900111e+00 -9.752092252750264867e-02 9.170539522833504043e-01 5.814190325413223226e-01 2.025937413066460024e+00 -4.368160650324956484e-01 -4.389691069977293969e-01 1.262447751991035705e-01 1.176963707018391370e-01 1.140017465757326098e+00 -3.636414345723342628e-02 5.473313440112658190e-01 -4.405446791452040656e-01 -7.523099893853964215e-02 2.611402848097493790e-01 2.593554248476461765e-01 4.334623177916895748e-02 -7.062512435468512595e-02 6.218691734802246351e-01 -1.559194218983417368e-01 2.386310975250673927e+00 1.353163478108721174e+00 -6.604614351212071410e-01 9.318527090823622849e-01 -4.360601606405936082e-01 -8.069469645203422026e-01 4.332072643370070142e-01 -9.439399802633473557e-01 1.540291466979119894e+00 -8.134446569666506921e-01 -1.034750837205864249e+00 -1.320212731490566505e+00 -9.812564604102423649e-02 -2.301934561611469476e-01 -1.940297045008687604e+00 9.559979408658710043e-02 -3.874812192750337614e-01 1.357619200255544945e+00 2.925787084234255930e-01 1.746447677698458600e-01 7.735868982450757603e-01 3.624664403305001836e-01 1.125740642943198644e+00 1.346197330627703526e+00 6.572305866216696102e-02 7.486261124713923243e-01 1.019056822212089514e-01 -9.262502748308164280e-02 7.874903968493247586e-01 1.496916953062839006e-01 -3.168154714870423105e-01 6.111718407831245869e-02 7.370983133845495638e-01 3.935382246030701414e-01 1.628066879278509127e+00 3.325115433635160711e-01 -2.896625629768431742e-01 1.988100541596704574e-01 6.248243996980890752e-02 -7.545226809489026243e-01 -6.364864103810450313e-01 3.259007223687595545e-01 -1.198407737597368961e+00 -1.271997858362738709e+00 -1.284416287658271649e+00 6.926639906575815520e-01 -1.450918371043241395e+00 6.053930288401350168e-01 -9.781346266937546163e-01 -1.041045926706315905e+00 6.295398032856680537e-01 -7.989251219940353144e-01 -1.100229641047518747e+00 -9.583016494888104211e-03 6.800496432849640893e-01 -1.363780078159883280e-01 -1.127292560939634258e+00 1.560801158592052706e+00 2.262838363709218925e-01 -8.901679243033534528e-01 -9.326440947008228788e-01 3.419207532703341657e-01 -3.783774564490249848e-01 1.914767531168715953e-01 -1.367263409010729847e+00 -1.441316842604061454e+00 -2.031495624339976214e-01 -7.480609839498275626e-01 -8.302005376538115211e-01 -1.392667453006059208e+00 1.612242252233344830e+00 -3.503030644896500956e-01 -8.618158531796062949e-01 -1.078721847104870735e+00 4.189854631350795611e-01 8.146222223118585459e-01 2.992939162151589949e-01 3.035778886566117274e-01 5.298277864629992173e-01 -1.200234763654802528e+00 -1.323054829159982848e+00 2.903418484882054340e-01 -1.336346405161263629e-01 -3.375817592166817649e-01 2.522560942118646024e-02 2.768538401891651457e-01 1.700286087724960371e-01 -1.793260271046206444e+00 -1.057970471774799304e+00 7.560226626571870945e-01 6.334057143185383154e-01 -6.146109486559411250e-01 2.986616818955376118e+00 2.408182837431054324e-01 7.073357349499269642e-01 -1.285474553806934539e+00 -9.897030492139036184e-01 1.020683816427040647e+00 -6.408752838401493568e-01 -1.428602222199865324e+00 -1.773577960498967931e-01 -4.866934136018327139e-01 -5.202509406162082461e-01 -1.907785442846780422e+00 8.233896848165721538e-01 -1.097634883522663335e-01 1.198870021983981182e+00 6.971839903887506740e-01 2.718751556161072558e-01 -5.298879502819464626e-01 -8.943428819617561809e-02 -2.685620318086075556e-02 1.257588366614522946e-01 -4.816802762435656304e-01 -5.785671646790853107e-01 7.917620279945831729e-01 -4.301090847715584031e-01 1.090352490326666146e+00 8.251375208900925129e-01 5.497502380653521703e-01 1.763164991835011741e-01 -3.426319204635317472e-01 4.708471892883280829e-01 7.849578600261157904e-03 9.640974307140670607e-01 6.946272851938276593e-01 2.484220648608297666e-01 3.391969263561131487e-01 -2.778488571948320093e-02 7.109784742099498622e-01 -2.924285559863947226e-01 -5.351119181168665362e-01 2.713732762375382634e-01 -2.912098529872058084e-01 -1.281268228687370836e-01 -5.528525313961989429e-01 -7.500217073826999370e-02 4.987940545203617718e-05 -5.420091600274661026e-02 -5.919595279326195225e-01 1.723138054511439698e-01 2.263296020109758222e-01 -3.221037169063076799e-01 4.741279171933177605e-01 -2.159942806689090500e-01 9.095710130241954072e-01 1.120567582955080521e+00 -1.034543606273934824e+00 -9.824103716044111367e-01 -3.663102398743555560e-02 -5.224749450345593793e-01 -6.383982828498148132e-01 -2.195880146986270987e+00 4.214454948431469727e-01 -2.463790661199952992e-01 -2.159593136630251764e-01 -1.390329291597910411e-01 1.503524688733547165e+00 7.916360439292661200e-01 -6.583546730167021410e-01 -8.195700536444307238e-02 5.730315791152588156e-01 -4.640836447531669906e-01 7.301748462195370992e-01 -3.268463741896492358e-01 9.597748917220073617e-01 -6.869576838297336563e-02 -1.109983378806428167e+00 -5.159715961608284385e-01 3.875280133564371621e-01 2.860100535239997188e-01 9.896068899477230563e-01 -7.268612081913626843e-01 -6.977439767035678031e-01 5.972560008826811595e-01 -2.223798730081192124e-02 4.917538592621779614e-01 -4.631529053318454991e-01 2.758809346725130118e-01 2.294349806658711743e-02 -1.306414648124643696e+00 2.854220936044754353e+00 -1.196703096060528493e+00 7.509370201837785308e-02 4.799895186649441592e-01 3.004930788287069054e-01 6.306181240406466548e-01 -4.693410369319465647e-01 -6.917702751248430149e-01 1.470573427894717344e+00 5.964178211828170539e-01 -8.739278069529801130e-01 8.496365364978385459e-01 -5.267697161101820846e-01 1.670296737972767342e-01 7.348923066898152001e-01 7.436155462164991681e-01 -1.294188023140797839e+00 -7.604794132453602806e-01 6.172704979858167039e-03 1.141961734128605910e+00 -4.655131782290088394e-01 2.223335931473905541e-02 -3.078340931816272441e-01 6.872096519603676512e-02 1.213850298681184103e+00 1.827303736598233364e-01 -5.777798928260227118e-01 1.573875219247908297e-01 6.552554650099038369e-01 -3.983559581049271325e-01 2.042620788638478846e+00 -9.161725780468062963e-01 -7.012015965206759571e-02 2.758994466168045445e-01 9.995920270102759408e-01 1.409679415589251972e-01 1.860064735787400336e-01 1.788776780982945569e+00 3.172438173091201019e-01 -3.361110880868588557e-01 7.528437504458006524e-01 5.533986337527975197e-01 6.624848934764006048e-01 4.265871873701048700e-01