3.278223999999999805e+00 1.094129399999999919e+01 1.181819400000000009e+01 8.230803999999999121e+00 6.697663999999999618e+00 1.558913999999999911e+00 2.853483999999999909e+00 4.227123999999999882e+00 2.161793999999999993e+00 5.622644000000000197e+00 9.300594000000000250e+00 1.030889400000000045e+01 2.467633999999999883e+00 8.246003999999999223e+00 4.038143999999999956e+00 3.027314000000000060e+00 6.470124000000000208e+00 2.794594000000000023e+00 8.689094000000000761e+00 9.488794000000000395e+00 2.973284000000000038e+00 1.108519399999999955e+01 6.807940000000000103e-01 1.076779400000000031e+01 7.176044000000000089e+00 1.004109399999999930e+01 5.955884000000000178e+00 6.977173999999999765e+00 1.703743999999999925e+00 3.642993999999999843e+00 6.665913999999999895e+00 1.187069400000000030e+01 1.163049400000000055e+01 5.721939999999999804e-01 5.204194000000000209e+00 4.353743999999999836e+00 1.274369399999999963e+01 3.905424000000000007e+00 9.698994000000000781e+00 5.802813999999999695e+00 6.613284000000000162e+00 8.312483999999999540e+00 1.208789400000000036e+01 1.908493999999999913e+00 4.146423999999999666e+00 8.156133999999999773e+00 2.860484000000000027e+00 8.080923999999999552e+00 5.867174000000000333e+00 1.936914000000000025e+00 1.251154000000000099e+00 1.556624000000000008e+00 6.305483999999999867e+00 1.156240000000000046e-01 1.530914000000000108e+00 1.091709400000000052e+01 1.071349400000000074e+01 9.537293999999999272e+00 3.041243999999999836e+00 6.126593999999999873e+00 4.703894000000000020e+00 6.990014000000000394e+00 1.253959399999999924e+01 8.554793999999999343e+00 5.490823999999999927e+00 4.878864000000000090e+00 1.010869399999999985e+01 4.559540000000000259e-01 3.526543999999999901e+00 7.460233999999999810e+00 4.724523999999999724e+00 9.481094000000000577e+00 4.753023999999999916e+00 8.746994000000000824e+00 1.249934000000000101e+00 6.089203999999999617e+00 1.196209400000000045e+01 6.868413999999999575e+00 3.801439999999999819e-01 8.808493999999999602e+00 2.633933999999999997e+00 5.888603999999999949e+00 2.826833999999999847e+00 7.169654000000000416e+00 4.751324000000000325e+00 4.060964000000000240e+00 3.561754000000000087e+00 1.000969399999999965e+01 8.383840000000000181e-01 6.542474000000000345e+00 7.176794000000000118e+00 1.052859400000000001e+01 8.678293999999999286e+00 1.087889400000000073e+01 4.730053999999999981e+00 5.104493999999999865e+00 1.028799399999999942e+01 8.467893999999999366e+00 4.156793999999999656e+00 6.665924000000000404e+00 7.740744000000000291e+00 2.941403999999999908e+00 4.437523999999999802e+00 9.326440000000000285e-01 7.120654000000000039e+00 1.371704000000000034e+00 2.780483999999999956e+00 1.150049399999999977e+01 1.078889400000000087e+01 1.129769399999999990e+01 2.594339999999999979e-01 2.649084000000000216e+00 1.057189400000000035e+01 4.579583999999999655e+00 3.099140000000000228e-01 4.369933999999999763e+00 1.414839999999999987e-01 9.391994000000000398e+00 4.314333999999999669e+00 1.071089399999999969e+01 1.190589399999999998e+01 1.418633999999999951e+00 8.129754000000000147e+00 2.802653999999999979e+00 8.420094000000000634e+00 1.171449400000000018e+01 7.245340000000000114e-01 8.725194000000000116e+00 8.090984000000000620e+00 1.231559400000000082e+01 6.203623999999999583e+00 1.037629399999999968e+01 8.927340000000000275e-01 8.694394000000000844e+00 6.454839999999999467e-01 7.341934000000000182e+00 2.434864000000000139e+00 1.230049400000000048e+01 5.951463999999999643e+00 1.230919399999999975e+01 9.454294000000000864e+00 8.263854000000000255e+00 1.193789400000000001e+01 2.673843999999999888e+00 8.277953999999999368e+00 6.423994000000000426e+00 7.807833999999999719e+00 1.667704000000000075e+00 4.006833999999999563e+00 6.131073999999999913e+00 1.457354000000000038e+00 1.276164000000000076e+00 4.677494000000000263e+00 3.257913999999999977e+00 4.744323999999999764e+00 1.181059400000000004e+01 1.234719400000000000e+01 1.158019400000000054e+01 9.750493999999999772e+00 5.029784000000000255e+00 6.252563999999999567e+00 3.933053999999999828e+00 9.257194000000000145e+00 1.076579399999999964e+01 9.434794000000000125e+00 5.203613999999999962e+00 1.990339999999999887e-01 3.225143999999999789e+00 7.069314000000000320e+00 8.419693999999999789e+00 7.003184000000000076e+00 1.232629400000000075e+01 4.566314000000000206e+00 7.624083999999999861e+00 7.221204000000000178e+00 3.900164000000000186e+00 1.278623999999999983e+00 4.386394000000000126e+00 2.853794000000000164e+00 8.626399999999999346e-02 8.049023999999999290e+00 3.728193999999999786e+00 3.386794000000000082e+00 2.237339999999999884e-01 1.181159399999999948e+01 7.507323999999999664e+00 1.066989399999999932e+01 4.259433999999999720e+00 1.922840000000000105e-01 1.222489400000000082e+01 1.349774000000000029e+00 7.442400000000000404e-02 1.854794000000000054e+00 7.759134000000000420e+00 9.644793999999999201e+00 2.698853999999999864e+00 3.508903999999999801e+00 7.951474000000000153e+00 1.189599399999999996e+01 1.203769400000000012e+01 3.084103999999999957e+00 1.250049399999999977e+01 6.340843999999999703e+00 2.542724000000000206e+00 8.103854000000000113e+00 7.925633999999999624e+00 4.854983999999999966e+00 2.864993999999999819e+00 1.192699400000000054e+01 7.724044000000000132e+00 3.108994000000000035e+00 5.928194000000000408e+00 8.115624000000000393e+00 9.510794000000000636e+00 6.267094000000000165e+00 1.246459399999999995e+01 5.416354000000000113e+00 1.112719399999999936e+01 4.539153999999999911e+00 1.609393999999999991e+00 1.220289400000000057e+01 2.666933999999999916e+00 4.275424000000000113e+00 7.626543999999999990e+00 9.930694000000000798e+00 3.636584000000000039e+00 1.221659400000000062e+01 1.118433999999999928e+00 5.021884000000000015e+00 1.564043999999999990e+00 9.753194000000000585e+00 5.350113999999999592e+00 4.544264000000000081e+00 5.694683999999999635e+00 1.176089400000000040e+01 8.987194000000000571e+00 6.801853999999999623e+00 4.693384000000000000e+00 1.061809399999999926e+01 2.510803999999999814e+00 8.647294000000000480e+00 1.181459399999999960e+01 5.994793999999999734e+00 1.188069400000000009e+01 1.105649400000000071e+01 5.438133999999999801e+00 1.223389399999999938e+01 8.105404000000000053e+00 1.157139399999999974e+01 2.784533999999999843e+00 1.131774000000000058e+00 1.054809400000000075e+01 9.834194000000000102e+00 2.016664000000000012e+00 9.673593999999999582e+00 1.053159400000000012e+01 2.299253999999999909e+00 1.318324000000000051e+00 3.433413999999999966e+00 6.302399999999999669e-02 4.755703999999999709e+00 1.094573999999999936e+00 2.753413999999999806e+00 2.953803999999999874e+00 2.552344000000000168e+00 7.153234000000000314e+00 6.125163999999999831e+00 1.073779399999999917e+01 6.510804000000000258e+00 7.656894000000000311e+00 2.591693999999999942e+00 9.879194000000000031e+00 6.982744000000000284e+00 4.863453999999999944e+00 6.841304000000000052e+00 6.503073999999999799e+00 9.400593999999999895e+00 9.888393999999999906e+00 1.186659399999999920e+01 9.233893999999999380e+00 3.178540000000000254e-01 9.541039999999999521e-01 6.314254000000000033e+00 9.764694000000000429e+00 1.268489399999999989e+01 9.981894000000000489e+00 8.790594000000000463e+00 8.438193999999999306e+00 8.237094000000000804e+00 7.787983999999999796e+00 1.145159400000000005e+01 8.358603999999999701e+00 8.601039999999999797e-01 1.104289400000000043e+01 1.038649400000000078e+01 7.637804000000000038e+00 1.024099400000000060e+01 1.046639399999999931e+01 6.531174000000000035e+00 1.780324000000000018e+00 3.066539999999999822e-01 1.201479400000000020e+01 1.269059400000000082e+01 1.253079400000000021e+01 8.262404000000000082e+00 4.808583999999999747e+00 7.505174000000000234e+00 1.312133999999999912e+00 6.133443999999999896e+00 6.435343999999999731e+00 6.104373999999999967e+00 1.131089399999999934e+01 5.163604000000000305e+00 3.840723999999999805e+00 1.059799399999999991e+01 1.524834000000000023e+00 1.472733999999999988e+00 8.816494000000000497e+00 5.645139999999999603e-01 5.651813999999999893e+00 6.831840000000000135e-01 1.972493999999999970e+00 1.021789399999999937e+01 5.842994000000000021e+00 4.644814000000000220e+00 2.289404000000000217e+00 7.203184000000000253e+00 9.608793999999999613e+00 7.441640000000000477e-01 1.061689400000000028e+01 6.083904000000000423e+00 8.597740000000000382e-01 9.290594000000000463e+00 3.993964000000000070e+00 9.784694000000000003e+00 1.717864000000000058e+00 2.148534000000000166e+00 8.859794000000000835e+00 7.827104000000000283e+00 8.195114000000000232e+00 1.146359400000000051e+01 9.012294000000000693e+00 1.141759399999999935e+01 7.695923999999999765e+00 4.184654000000000096e+00 5.415434000000000303e+00 5.979434000000000360e+00 5.485024000000000122e+00 5.711354000000000042e+00 9.112994000000000483e+00 1.166249400000000058e+01 8.158523999999999887e+00 1.245119399999999921e+01 1.444584000000000090e+00 1.267399400000000043e+01 8.970494000000000412e+00 1.248179400000000072e+01 1.254619399999999985e+01 2.933154000000000039e+00 3.339323999999999959e+00 4.456673999999999580e+00 1.704674000000000023e+00 7.828939999999999788e-01 7.925039999999999862e-01 5.852444000000000202e+00 3.202474000000000043e+00 8.977394000000000318e+00 1.787214000000000080e+00 8.588193999999999662e+00 6.795034000000000241e+00 1.696973999999999982e+00 5.022844000000000086e+00 4.095883999999999858e+00 8.494840000000000169e-01 1.039959400000000045e+01 2.392103999999999786e+00 6.311139999999999528e-01 5.478343999999999880e+00 3.455340000000000078e-01 9.209794000000000480e+00 3.934124000000000176e+00 9.828393999999999409e+00 4.771133999999999986e+00 1.192959399999999981e+01 5.234624000000000166e+00 1.720839999999999870e-01 6.411993999999999971e+00 2.540594000000000019e+00 2.082613999999999965e+00 1.152059399999999911e+01 1.153689400000000020e+01 1.605534000000000017e+00 1.173259400000000063e+01 2.189484000000000208e+00 6.269154000000000337e+00 7.051974000000000409e+00 1.256059400000000004e+01 7.650733999999999924e+00 2.093614000000000086e+00 1.009529400000000088e+01 3.200034000000000045e+00 1.032769399999999926e+01 7.680813999999999808e+00 3.664524000000000115e+00 5.834400000000000003e-02 1.799363999999999963e+00 1.136389400000000016e+01 3.711244000000000209e+00 1.111749400000000065e+01 1.377944000000000058e+00 7.035033999999999565e+00 9.848494000000000526e+00 1.228959399999999924e+01 6.420874000000000414e+00 8.805493999999999488e+00 5.972399999999999931e-02 3.818893999999999789e+00 1.094303999999999943e+00 3.321603999999999779e+00 1.267829399999999929e+01 1.002329399999999993e+01 1.238439400000000035e+01 2.590399999999999994e-02 8.640893999999999409e+00 5.099164000000000030e+00 1.001399400000000028e+01 2.390643999999999991e+00 1.259139399999999931e+01 1.513563999999999909e+00 3.456803999999999988e+00 3.454840000000000133e-01 7.876864000000000310e+00 5.434694000000000358e+00 6.973714000000000190e+00 9.614394000000000773e+00 4.557604000000000433e+00 5.959833999999999854e+00 7.658474000000000004e+00 9.304194000000000742e+00 7.004743999999999637e+00 2.300434000000000090e+00 6.120364000000000360e+00 9.074593999999999383e+00 1.107704000000000022e+00 7.703903999999999641e+00 8.549993999999999872e+00 3.446623999999999910e+00 4.468493999999999744e+00 9.092893999999999366e+00 9.706993999999999900e+00 7.535624000000000322e+00 1.258469400000000071e+01 6.478933999999999749e+00 3.831064000000000025e+00 1.194199399999999933e+01 1.254329399999999950e+01 1.262849399999999989e+01 8.133013999999999299e+00 6.146023999999999710e+00 6.047513999999999612e+00 3.317664000000000168e+00 1.664994000000000085e+00 2.189594000000000040e+00 5.576153999999999833e+00 1.190429400000000015e+01 8.007464000000000581e+00 4.274583999999999939e+00 4.637044000000000388e+00 1.128869399999999956e+01 1.462614000000000081e+00 9.385393999999999792e+00 4.973739999999999828e-01 4.001733999999999902e+00 6.863634000000000235e+00 3.851923999999999904e+00 7.748604000000000269e+00 6.149113999999999969e+00 1.165159399999999934e+01 1.130359400000000036e+01 4.166464000000000389e+00 7.156994000000000078e+00 5.765894000000000297e+00 8.289433999999999969e+00 8.032173999999999481e+00 2.403664000000000023e+00 3.265874000000000166e+00 3.576454000000000022e+00 3.958194000000000212e+00 1.439139999999999864e-01 4.483940000000000148e-01 1.055479399999999934e+01 9.971693999999999392e+00 8.067114000000000118e+00 1.060939399999999999e+01 2.652664000000000133e+00 1.892803999999999931e+00 1.787943999999999978e+00 3.520194000000000045e+00 2.828063999999999911e+00 4.693463999999999636e+00 8.629594000000000875e+00 6.075974000000000430e+00 1.236714000000000091e+00 2.667553999999999981e+00 7.738164000000000264e+00 2.061074000000000073e+00 1.102149400000000057e+01 9.912093999999999738e+00 5.629763999999999768e+00 4.943964000000000247e+00 6.098504000000000147e+00 4.038234000000000101e+00 6.687453999999999787e+00 1.030239399999999961e+01 3.650754000000000055e+00 1.369974000000000025e+00 5.909244000000000163e+00 7.710644000000000275e+00 7.337404000000000259e+00 3.069564000000000181e+00 5.566594000000000264e+00 1.824753999999999987e+00 1.115849399999999925e+01 9.985393999999999437e+00 5.925953999999999944e+00 9.634494000000000113e+00 1.059319400000000044e+01 1.073269400000000040e+01 1.131169399999999925e+01 8.601993999999999474e+00 1.068519399999999919e+01 1.182629400000000075e+01 3.845083999999999946e+00 8.673294000000000281e+00 1.695653999999999995e+00 3.599254000000000175e+00 2.067413999999999863e+00 2.479823999999999806e+00 2.434623999999999899e+00 8.715894000000000474e+00 6.572913999999999923e+00 1.110259399999999985e+01 9.995000000000000412e-03 8.961593999999999838e+00 3.682183999999999902e+00 7.113984000000000307e+00 9.975194000000000116e+00 1.012179399999999951e+01 8.412494000000000582e+00 4.724324000000000190e+00 1.200069399999999931e+01 2.042024000000000061e+00 6.910604000000000191e+00 6.921833999999999598e+00 1.942064000000000012e+00 3.036964000000000219e+00 7.020323999999999565e+00 9.247393999999999892e+00 8.125353999999999743e+00 7.676014000000000337e+00 7.309353999999999907e+00 9.470394000000000645e+00 7.138443999999999789e+00 1.134609400000000079e+01 7.827694000000000152e+00 1.245749400000000051e+01 1.144389400000000023e+01 2.741493999999999875e+00 3.370924000000000031e+00 6.588014000000000259e+00 5.642144000000000048e+00 5.110713999999999757e+00 3.312304000000000137e+00 5.979834000000000316e+00 1.149579400000000007e+01 8.314624000000000237e+00 9.991493999999999431e+00 9.282394000000000034e+00 3.106214000000000031e+00 1.071389399999999981e+01 1.247489400000000082e+01 2.555054000000000158e+00 7.350894000000000261e+00 9.802894000000000219e+00 7.429884000000000377e+00 4.007339999999999791e-01 5.179184000000000232e+00 1.010509399999999935e+01 4.358424000000000298e+00 7.497743999999999964e+00 1.011894000000000071e+00 1.533083999999999891e+00 1.194589399999999912e+01 7.944793999999999912e+00 1.708693999999999935e+00 5.580340000000000300e-01 9.917194000000000287e+00 6.991354000000000291e+00 8.711494000000000071e+00 5.588974000000000331e+00 2.844813999999999954e+00 1.115349400000000024e+01 1.045109399999999944e+01 7.244673999999999836e+00 7.100234000000000378e+00 1.092579399999999978e+01 1.270299400000000034e+01 1.186199399999999926e+01 6.194233999999999796e+00 5.901343999999999923e+00 1.076669399999999932e+01 5.894493999999999900e+00 1.671564000000000050e+00 4.551263999999999754e+00 4.842214000000000240e+00 1.016689399999999921e+01 1.010349399999999953e+01 1.546540000000000137e-01 1.184619400000000056e+01 5.813623999999999903e+00 7.339523999999999937e+00 3.307754000000000083e+00 9.626993999999999829e+00 1.225569400000000009e+01 8.337754000000000332e+00 9.001694000000000528e+00 1.205339400000000083e+01 3.633964000000000194e+00 6.077163999999999788e+00 3.994314000000000142e+00 5.307140000000000191e-01 2.941014000000000017e+00 1.040929399999999916e+01 8.053694000000000131e+00 4.577963999999999700e+00 2.246614000000000111e+00 3.556853999999999960e+00 1.072779399999999939e+01 7.544194000000000067e+00 1.075799400000000006e+01 1.544844000000000106e+00 4.020903999999999812e+00 1.592739999999999989e-01 1.348773999999999917e+00 5.088604000000000127e+00 4.519440000000000124e-01 1.539754000000000067e+00 8.020913999999999433e+00 4.026633999999999602e+00 7.472739999999999938e-01 3.804314000000000195e+00 1.180029399999999917e+01 1.798234000000000110e+00 1.297384000000000093e+00 9.361793999999999727e+00 8.443293999999999855e+00 5.148973999999999940e+00 8.223193999999999448e+00 6.196833999999999953e+00 2.935240000000000071e-01 6.193840000000000456e-01 5.791140000000000176e-01 4.957400000000000001e-02 9.351494000000000639e+00 8.141094000000000719e+00 9.446894000000000347e+00 6.850924000000000014e+00 9.518293999999999144e+00 9.632593999999999212e+00 5.095054000000000194e+00 2.908764000000000127e+00 9.517594000000000776e+00 6.047223999999999933e+00 1.229709399999999953e+01 4.070584000000000202e+00 2.502304000000000084e+00 7.730383999999999922e+00 2.766513999999999918e+00 5.725573999999999941e+00 1.171559399999999940e+01 1.066939400000000049e+01 7.769453999999999638e+00 6.593034000000000283e+00 4.841624000000000372e+00 5.540333999999999648e+00 7.599873999999999796e+00 3.657614000000000143e+00 1.213049400000000055e+01 5.186753999999999643e+00 4.926823999999999870e+00 1.215864000000000056e+00 1.129029399999999939e+01 1.202699400000000018e+01 8.308274000000000825e+00 1.067659399999999970e+01 5.422743999999999787e+00 2.956840000000000024e-01 1.267629400000000039e+01 2.566683999999999966e+00 5.467043999999999571e+00 3.086214000000000013e+00 1.183219399999999943e+01 1.204319399999999973e+01 1.192039399999999993e+01 8.467294000000000764e+00 1.063089399999999962e+01 6.587804000000000215e+00 4.097540000000000071e-01 1.269909400000000055e+01 6.863713999999999871e+00 1.147729400000000055e+01 6.358664000000000094e+00 4.876654000000000266e+00 1.052669400000000088e+01 3.921733999999999831e+00 4.691423999999999594e+00 1.068059399999999926e+01 1.245839400000000019e+01 9.541194000000000841e+00 7.911433999999999855e+00 7.405584000000000167e+00 3.459923999999999999e+00 8.982094000000000023e+00 5.690494000000000163e+00 6.121564000000000227e+00 1.249399400000000071e+01 3.920774000000000203e+00 7.426394000000000162e+00 1.146259399999999928e+01 4.710043999999999897e+00 3.631053999999999782e+00 4.893653999999999726e+00 1.171859399999999951e+01 1.221379400000000004e+01 1.076989400000000074e+01 1.060959399999999953e+01 3.424033999999999800e+00 5.407893999999999757e+00 3.776893999999999973e+00 1.152309400000000039e+01 5.000624000000000180e+00 1.905953999999999926e+00 7.705254000000000048e+00 2.333639999999999881e-01 1.185449400000000075e+01 4.266924000000000383e+00 1.235819399999999924e+01 1.107859400000000072e+01 6.394464000000000148e+00 9.773994000000000071e+00 3.834823999999999788e+00 3.514584000000000152e+00 2.787123999999999935e+00 6.832574000000000147e+00 1.391834000000000016e+00 3.432540000000000036e-01 9.068994000000000000e+00 1.663653999999999966e+00 5.852083999999999619e+00 1.128659399999999913e+01 5.657904000000000266e+00 2.425434000000000090e+00 5.348714000000000190e+00 1.018259399999999992e+01 3.603333999999999815e+00 9.486793999999999727e+00 5.869214000000000375e+00 7.661734000000000044e+00 6.887940000000000174e-01 7.601694000000000173e+00 8.922193999999999292e+00 9.354993999999999588e+00 1.632894000000000068e+00 1.204234000000000027e+00 1.204949399999999926e+01 1.135069400000000073e+01 5.826740000000000252e-01 3.079353999999999925e+00 9.405893999999999977e+00 4.035724000000000089e+00 1.733603999999999923e+00 7.504413999999999696e+00 5.088044000000000011e+00 1.070549399999999984e+01 7.968543999999999627e+00 7.546143999999999963e+00 1.884244000000000030e+00 8.531793999999999656e+00 1.072109400000000079e+01 7.037073999999999607e+00 2.061274000000000051e+00 7.260703999999999603e+00 1.003943999999999948e+00 9.612994000000000483e+00 1.689953999999999956e+00