-7.786986157654000272e+04
-7.790201207990120747e+04
-7.788382546413903765e+04
-7.786426956248284841e+04
-7.785239756109072187e+04
-7.785986213433272496e+04
-7.789390888996394642e+04
-7.784737503611772263e+04
-7.787147289101593196e+04
-7.787879036085300322e+04
-7.784804926266540133e+04
-7.787756893224619853e+04
-7.786499735596978280e+04
-7.785181234401783149e+04
-7.786701233586702438e+04
-7.791388914557345561e+04
-7.785315218161353550e+04
-7.785668979632754053e+04
-7.787421245485483087e+04
-7.784608373178886541e+04
-7.785263717646288569e+04
-7.787431364895436855e+04
-7.786274426367181877e+04
-7.788181350436646608e+04
-7.788566452475367987e+04
-7.786726091433610418e+04
-7.787544791956804693e+04
-7.787431636757284286e+04
-7.785211526086868253e+04
-7.788359702150017256e+04
-7.789278709422008251e+04
-7.786411526744693401e+04
-7.788380636654654518e+04
-7.786962737129080051e+04
-7.789671943231234036e+04
-7.787730032262642635e+04
-7.786504531559790485e+04
-7.787787639681932342e+04
-7.789116285871538275e+04
-7.787950579924024350e+04
-7.789465074464459030e+04
-7.787606371035889606e+04
-7.789999142659553036e+04
-7.789151758639613399e+04
-7.788319835315630189e+04
-7.787044230151007650e+04
-7.785659669488811051e+04
-7.790260872525149898e+04
-7.789022064460920228e+04
-7.786721778456449101e+04
-7.785689118647828582e+04
-7.789194802782816987e+04
-7.787354494250185962e+04
-7.789284276951952779e+04
-7.787126601768644468e+04
-7.788119886876692181e+04
-7.787066108159524447e+04
-7.790224446063992218e+04
-7.789691483420740406e+04
-7.785961325887066778e+04
-7.785975902994010539e+04
-7.783163349562264921e+04
-7.789888791745333583e+04
-7.784698626133255311e+04
-7.788879152671259362e+04
-7.790779475125938188e+04
-7.785324236165033653e+04
-7.788645352764119161e+04
-7.785964892555780534e+04
-7.788788164638285525e+04
-7.790687936647247989e+04
-7.784382313713038457e+04
-7.788356784559346852e+04
-7.786934228676560451e+04
-7.788490182014169113e+04
-7.785749958084203536e+04
-7.786006953433697345e+04
-7.785386961331086059e+04
-7.788091203427822620e+04
-7.786976834455745120e+04
-7.786902057868304837e+04
-7.787952228391375684e+04
-7.788592434196465183e+04
-7.785390127237389970e+04
-7.783745048330076679e+04
-7.786153380354963883e+04
-7.789749267928069457e+04
-7.790950080267635349e+04
-7.787255403497842781e+04
-7.786055746468987491e+04
-7.786586547607743705e+04
-7.786476723845380184e+04
-7.786363952388403413e+04
-7.790991082709419425e+04
-7.789940389882332238e+04
-7.790467163871673984e+04
-7.786078795368129795e+04
-7.790498137089588272e+04
-7.788377338855658309e+04
-7.789330650605742994e+04
-7.788409385089357966e+04
-7.791235897834040225e+04
-7.791170105985754344e+04
-7.789786129419633653e+04
-7.790276286555684055e+04
-7.790712062840409635e+04
-7.787954956226702780e+04
-7.787430622932370170e+04
-7.787347373030681047e+04
-7.789080493835781817e+04
-7.787861025571067876e+04
-7.787409978351439349e+04
-7.791286810614656133e+04
-7.785554487869053264e+04
-7.786479034045380831e+04
-7.789104231889295625e+04
-7.785532944128027884e+04
-7.786191922325358610e+04
-7.785558623778118636e+04
-7.787218971267413872e+04
-7.785558781835831178e+04
-7.784889960201717622e+04
-7.784571078133043193e+04
-7.789354303527087905e+04
-7.787849759815189464e+04
-7.784140066858645878e+04
-7.786787568147602724e+04
-7.786718723074173613e+04
-7.787938107406068593e+04
-7.785663957294328429e+04
-7.786039033025209210e+04
-7.791251281025828212e+04
-7.787000782673952926e+04
-7.785896516730677104e+04
-7.789888424166872574e+04
-7.787208909535275598e+04
-7.787202167414413998e+04
-7.784952231615329219e+04
-7.786922915833967272e+04
-7.786569161710733897e+04
-7.789633506720935111e+04
-7.787093852084464743e+04
-7.787554109801824961e+04
-7.785565172152369632e+04
-7.790070656687321025e+04
-7.791069791137358698e+04
-7.790858274488765164e+04
-7.786741051177945337e+04
-7.786448630478096311e+04
-7.790559187092086358e+04
-7.786085303052097152e+04
-7.784324357846379280e+04
-7.788921779015372158e+04
-7.788501527698678547e+04
-7.785298166455788305e+04
-7.788085981053154683e+04
-7.784374166073504603e+04
-7.785934576151793590e+04
-7.786407307376881363e+04
-7.787852998729675892e+04
-7.786356283161048486e+04
-7.788815903823653935e+04
-7.786271763747854857e+04
-7.787713557659096841e+04
-7.788977584656978433e+04
-7.785710884118301328e+04
-7.786394510678818915e+04
-7.788538440134435950e+04
-7.790809882761508925e+04
-7.787020867956941947e+04
-7.787903258610464400e+04
-7.788607541762461187e+04
-7.787719968221259478e+04
-7.785369780630407331e+04
-7.786092871410593216e+04
-7.788252659386853338e+04
-7.789837187789748714e+04
-7.786409757971928047e+04
-7.786895582016398839e+04
-7.789151307651704701e+04
