1.274598786535691419e-01 -6.771977754227269664e-01 -1.073521533420989771e+00 -3.948169885770714149e+00 -7.065206951804270386e-01 -6.674224403954776008e-02 2.639603738342861217e+00 -3.713840552722446620e-01 -3.332777321689133210e-01 2.968794444588755965e+00 1.275047186964084922e+00 -3.553784225495634219e-01 -5.990244057831920488e-01 -6.734665902066447885e-01 5.666845533266559043e-01 7.937716023915579455e-02 8.198374483953076164e-02 1.820295937242559559e+00 -1.654780129111786069e+00 5.872101857805060998e-01 5.748498634212216851e-01 1.722722564206231155e+00 9.757327019219352859e-01 -5.762567711873739507e-01 4.913162574679544314e-01 2.069780382017450293e+00 -1.739315436939492254e-01 -3.427938999760822281e-01 -3.806410558593328330e-01 2.488232598312800636e+00 -3.769643780347755602e-01 -1.178576817275123645e+00 1.688109856367241202e+00 3.428813174907919259e-01 -1.229597792625134467e+00 1.094182920132977577e+00 -3.381741414340090901e-01 2.458525041490377205e+00 6.471544324996836295e-01 -1.733175642082818713e-01 -1.080557614913775499e-01 1.610289242110593877e+00 -2.796722837075425461e-01 5.822474420483659818e-01 3.689589905700611516e-01 2.068433123849570343e+00 -1.453871026157731894e+00 -1.076689646998206129e+00 9.565738680216058498e-02 -7.584610970969144494e-01 2.905079417661539654e-01 1.972825616452862141e+00 8.654951021075373008e-02 -1.874804357208814665e+00 -1.151200736992077367e+00 1.178342332647431601e+00 7.505914638903375957e-01 -7.487438690059131652e-01 -1.465364372459365405e-01 9.413837892890991599e-02 -4.084166856066703266e-01 9.583134765643300801e-01 1.600778216510172713e+00 6.073753495413474202e-01 1.219774635075131730e+00 -7.446043925740689629e-01 -1.051556597298477058e+00 1.621306934288071488e-01 -2.455403721994564494e-03 -1.697057810328796768e+00 -8.141959333724798631e-01 -6.977568322204368290e-01 9.102729242452473057e-01 9.997514354194524389e-01 4.937042982815549874e-01 -6.452538728857586392e-01 1.777203216256048879e-01 -1.486103920713917281e+00 3.219407089524077281e-01 9.372134596167692733e-01 -3.316106287413308346e-02 -1.192468488803853255e+00 -5.880159695778601758e-01 -6.408793976055474628e-01 5.176993776280329751e-01 1.082912231383516444e+00 1.000302679982798759e+00 6.043213929539282825e-01 6.412198116922408486e-01 6.087128375164065908e-01 -1.338551383414648521e+00 -1.578132966434948381e+00 3.021581253735903250e-01 1.115463942758055049e+00 2.200463395860435822e-01 -4.990866460843020325e-01 5.266329334106950588e-01 -5.938647155326174376e-01 1.293826011785764507e+00 -1.207348492469477730e+00 -4.775454277977943529e-01 5.800938858624573591e-01 -1.489911724810539129e+00 1.148747390152781822e+00 1.791505750103914218e+00 -1.242742815734107636e-01 -4.143410220006177869e-01 -1.086814652084294730e+00 -1.096922687888116199e+00 -7.085292411360524789e-02 -2.837305132727741541e-01 -1.251597181532855929e+00 8.740162529090393928e-01 2.292419422245650207e+00 -2.307827530544256378e-01 1.141811067470900110e+00 1.508785166236375208e-01 2.659491737160004643e+00 -2.623681923590166054e+00 -3.946299150955925872e-01 -1.323488831409483035e+00 -4.985971080019274138e-01 1.379412386672686619e+00 1.212292724257326482e+00 1.143101247143881283e+00 2.164529655107978900e+00 2.984928632480128297e+00 -1.020574287423316129e+00 4.831452909459661993e-01 -6.613937172045529778e-01 -1.469878201542437202e+00 -1.798293977231464114e+00 -6.549381908535749641e-01 8.432668849995459404e-01 -1.343655537832348701e+00 -2.484467988752858680e+00 -8.665230292363891307e-01 -2.011605568640133235e-01 -5.991596458206547293e-01 2.323763229255169926e-02 3.300201441942880454e-01 1.144540036591868759e+00 6.001258664685348299e-01 8.419412241000062691e-01 4.177420775435020661e-01 1.520433292961112404e+00 -9.346927498690796865e-01 -1.659098040117773065e+00 1.330716202993280861e+00 -1.857915293366890319e+00 9.594519611382558155e-01 -7.458133253804372087e-01 1.972724829200608099e+00 1.708302788044519793e-01 -2.790531620151275871e-01 6.787275819301477053e-01 -6.239995897357688559e-01 -2.613248900319894430e-01 -2.431482176204577683e-01 1.183598696384861704e+00 1.592304888231423909e-01 -1.283438239934871772e-01 1.347764675244381927e+00 -1.185269913577842171e+00 5.492164770049479117e-01 -9.088598458309979922e-01 1.417347474291321907e+00 -1.200936674875854454e-01 -5.166627087477102531e-01 -1.008370802369834118e+00 1.091797964643425489e+00 -4.736286089181225845e-01 9.046087835127299970e-01 -5.703853995229271057e-01 2.950109722150558444e-01 6.026465762162244166e-01 1.833656933034933489e+00 1.497047050893554276e+00 1.422626977959116301e+00 -3.388323438977060675e+00 -1.303050616470342593e-01 2.748694111831862408e+00 -8.209445655080729320e-01 2.137309897910060652e+00 -4.024219009802802449e-01 -4.525666443004942030e-01 1.621846865996573184e-01 -9.652533987909349689e-01 -3.892578517063408072e-01 1.102245900313265192e+00 -9.826957640789047987e-01 1.064013593144617076e+00 4.477386263851420578e-01 -1.688128368311532901e+00 -2.297181619914632655e+00 5.806980951553042392e-01 1.034657763263731933e+00 1.085861286953283766e+00 2.532441692384221898e+00 1.223964505133102731e+00 -6.836347898294135028e-01 -7.735020518337397677e-01 -4.496762098876500025e-01 -6.461964393825996300e-01 2.328699747732897174e-01 1.601282152771440703e+00 -1.570121408322136813e-01 -1.224086889653696331e-01 -2.601780236610649499e+00 1.911923890837275222e-02 -6.704044060884296607e-01 4.230226096526458757e-01 -1.060019641163730819e-01 -2.687558930029933513e-01 -1.223831836199013701e+00 -1.489919438120660633e+00 -3.474943911640931415e-01 2.090575466104876323e+00 2.349214581552577563e+00 -1.355321148060028014e-01 -5.540624926439168263e-01 -7.118109974823916275e-01 -7.720606912823783086e-01 9.568155517387448850e-01 -9.416460418332286419e-01 -1.334935383629713090e+00 8.145306910317506865e-01 -1.412005235701206285e+00 4.338778080968983542e-01 2.301326238553224712e+00 9.054330792543755502e-01 1.346265721977447094e-01 -5.905685610073849734e-01 -5.889595645160508042e-01 -2.061063313138863651e-01 1.266375883725552098e+00 -2.973213657067670934e-01 5.143667134348923753e-01 -5.407205230165093024e-01 -9.096172928849239891e-01 -5.730845438447594864e-01 4.365496987229682824e-01 4.436809110405851575e-01 5.081950368963836784e-01 -3.609129796720403904e-01 2.902077911582946257e+00 -1.096414637861450103e+00 2.119462326730377377e+00 -7.802475986452842571e-01 1.243591279847466868e-02 7.130610679427410448e-01 1.337749713382692551e+00 6.506403344539036793e-01 -3.217715303504106172e-01 -2.405621504250058607e+00 -7.658802729923986849e-03 5.536228339669942988e-01 -4.017744971507533069e-01 -1.024898883298074770e+00 9.125982301365267446e-01 5.199717187898118542e-01 1.182190760177359801e+00 5.452919448151547499e-01 -4.017066200216845018e-01 1.229745888179465840e+00 1.266799601561557020e+00 -5.589943831355713710e-01 -1.137744096154197582e+00 -7.441935302549330666e-01 3.626808703518765165e-01 2.214090243741661801e-01 8.075444889444172158e-01 5.646513247786418832e-01 -1.102704070934479530e+00 1.812989889895523454e+00 -3.641330295374078929e-01 -5.488446954570941339e-01 1.903290125708000380e-01 -8.186100036446476436e-01 9.841695205327763984e-01 -1.267287596981907516e+00 -1.674818280365960588e+00 -4.284162703102377123e-01 6.015106627456723309e-01 7.292153104404287545e-01 -7.407323108931015421e-01 -3.541725750672435891e-01 -1.388195275797642902e-01 5.600079120855296910e-01 7.903906014549895165e-01 -2.135213934439725569e-01 -2.032906131650851655e+00 -9.175203504353607320e-01 4.345020719960610012e-01 6.607355147408560114e-01 -1.900161607122740515e+00 8.987276416554624836e-01 6.736290839398699493e-02 -9.767909680705983977e-01 -9.438731315756281326e-01 2.706507961894959458e-01 4.052043490514242174e-01 1.325496348923758949e-01 -6.908575334271382928e-01 1.778293364086546979e-01 -4.910396067449318003e-01 2.538810315441164880e-02 1.964523523658809057e-01 -1.115533876769822852e+00 -8.775042117459583846e-01 -1.656976879834374694e+00 -4.493784761169620223e-01 -1.329598801467020142e+00 -4.072247220825690461e-01 1.546513537143755501e+00 3.290518666637088363e-01 -5.154121240666859061e-01 1.416483069337044709e+00 -1.288149529757052880e+00 -1.517663186186162694e+00 2.035370277124317617e+00 -2.958990313203719302e-01 -4.075455957836213727e-01 -1.284785498102751500e-01 6.864213516659555259e-01 -1.451773520025372521e+00 -1.952855856548430663e-02 2.438562994896067870e+00 1.073340527743473105e+00 -1.484464070982097095e+00 9.149528466062677445e-01 -5.233815160841670533e-01 -7.782642495027223273e-01 -9.622560064777399558e-02 1.007975366670941370e-02 6.140098246871429355e-01 -2.349818276624749291e+00 1.478535106602076876e+00 -7.153339233251946316e-01 -7.243636383740374995e-01 4.646492874954065710e-01 -2.596783554313975007e-01 -5.448579425656545627e-01 4.727590617570978648e-02 9.710743768292551259e-01 -1.861854223735576741e-01 -8.118022361314567448e-01 4.493995591646273158e-01 5.751918201699391942e-01 9.872831267184678516e-02 -5.114181720857997604e-01 -4.146392699919805302e-01 -5.134184905106288499e-02 1.131832101056444273e+00 9.511519252269020619e-01 7.044000491177035417e-02 1.613118998483816346e+00 1.002411498970002812e-01 -7.333146776596415062e-02 1.065825192581808245e-02 1.051515459644495998e+00 8.324204283067646037e-02 1.411205622551949368e+00 1.609613556143955071e-01 1.232895489812390992e-02 3.903963362802666259e-02 2.078593095941543012e-01 1.688623562821329749e-01 1.528886052412870844e-01 -8.058285345527321786e-01 -3.440131171959458500e-01 -1.446695076641410616e+00 -5.744004345514786003e-01 -4.581315404427823146e-01 -1.189721521959267864e-01 -4.500659891591205497e-01 -1.879497135086704018e-01 -2.145431499247271445e-01 3.875732647758163285e-01 -1.064060387226020588e+00 -2.081822401779056392e-02 -1.739774636002055619e+00 2.004290779541626044e+00 1.797073217349576035e+00 1.330729058510149665e+00 -7.112823786287350014e-01 4.185242071898169491e-02 -3.247041308585854602e-01 -3.673119417487943905e-01 -7.601806510333228850e-01 -1.228045874628698853e+00 -2.252955042340269026e-02 -1.692644768497978680e-01 3.253170819029032601e-01 -9.059493568118378581e-01 6.366869564442025897e-01 3.692639234301957063e-01 1.322234647183735401e+00 -1.210123741451174961e+00 -1.626957191062370134e+00 7.670496108068104446e-01 6.036961006134162755e-01 1.348787974387160693e+00 -1.540836540894368889e-01 -1.442416246406705627e+00 5.991694160134752867e-01 8.059036107712476138e-01 -7.891317892431689573e-01 4.233424549123486480e-02 6.442208035501592045e-01 -7.189607217442999243e-01 -5.546384197996517829e-02 -1.568699073935741595e+00 -5.060785045990581210e-01 -5.715645075301591937e-01 -1.635002173519041424e+00 -1.520560819688453691e+00 2.116357462296157010e-01 1.274871323493315944e-01 6.035125238325257380e-01 -6.313765995359225114e-01 2.139899513228168182e+00 1.229240409256173727e+00 1.700167816969765100e-01 1.847795430487549018e+00 2.546883580034948330e-02 4.134838161357874964e-01 -1.355722240186343130e+00 2.480658127773537558e+00 1.471786474466483918e+00 1.763817537871286367e+00 -2.190996593238044021e-01 1.111400570986075670e-01 -1.201544483713424594e+00 -7.022027841744400423e-01 1.482805195085310945e+00 3.369538957727958306e-01 -1.490489194628298042e-01 7.848611865392601805e-01 -1.446816432720654799e-01 8.131793190984728525e-01 5.317196043254532323e-02 3.896517447432094050e-01 4.440316095407736419e-01 8.012092902313338039e-01 1.101013313355858059e-01 8.060100544509235521e-02 -2.096998082332669711e+00 -2.139723649757399482e+00 -7.618097021309727657e-01 -6.927164411664074040e-01 4.927267647788300398e-01 6.389407856616899917e-01 3.854207370312573433e-01 1.338835233227117782e-01 1.143534735172706540e+00 5.195068632998258579e-02 -3.793575610551236932e-01 -1.228416627735203076e-01 6.512275744644834274e-01 -3.684493978813706966e-02 -2.224374657236927177e-01 6.918695197150722676e-01 1.382657633351117576e+00 -3.157932007856129736e-02 3.547351324854345483e-02 -8.988649385756244392e-01 1.365559281694564420e-01 -1.223942393644087856e+00 -3.824799089922862882e-01 7.216079297779811608e-01 8.932321653042676335e-01 -6.064122142175158992e-01 -1.823323668575565701e-02 -2.704929304423436265e-01 -1.086695352887749655e+00 -2.937768425956239771e-01 2.145837733580334139e-01 2.887127973905553868e-01 -1.444624824204813640e+00 -1.939795165630118889e+00 7.611350446056833752e-01 9.827857526969883128e-01 1.158348404371286611e+00 3.063649647138285692e-01 -1.784478924583274173e+00 -3.629384949099329072e-01 -5.809927436019435287e-01 1.204599468742193036e+00 9.487577137652042358e-01 1.280013530240948494e-01 -1.971177539190245576e-01 -1.938539952963021507e-01 5.088429549465853796e-01 4.357768250487990547e-01 -5.443900017516198897e-01 9.093678958576640881e-01 -8.946668409868571148e-01 -6.133598497542420702e-01 -1.467383202828486111e+00 -6.089488648061229803e-01 -3.180331460448816983e-01 -8.068122387035542992e-03 -9.014391272734892380e-02 7.361799152594223905e-01 2.686818452258274426e-01 1.145020318702097750e+00 -1.374586425640033305e+00 1.123028643104497348e+00 1.848530766052460528e-01 1.095089491182585223e-01 2.076179858314878945e+00 4.659286685342175494e-01 3.871953125798653916e-01 1.302894807605889271e+00 -1.522203240523647638e+00 -2.690256531689741326e+00 -1.783669027020521991e+00 7.477339396006781325e-01 -1.427022022066317675e+00 -2.711655310849339084e-01 -1.463805255373483272e+00 5.472984338880809707e-01 -9.862202325837321482e-01 5.969366698436532337e-01 -8.070415811244986415e-01 1.831381506549105975e-01 -9.225519997379191262e-01 -7.496154730496368268e-02 -1.174711420462928174e-01 4.422462353579956207e-01 4.911671334722730875e-01 -5.604064331084712691e-01 2.546019689301345923e-01 -2.995491753581114747e+00 -3.105291237380615188e-01 7.271836245544391897e-01 -3.506717607134552939e-01 -6.597934624646897284e-01 1.153660768700144557e+00 -3.365780004595439467e-02 -5.188764287525661212e-01 -4.536490788208708547e-01 -9.823116412348564808e-01 -9.557233470255473984e-01 7.408207568491608219e-01 -7.578327194323537797e-02 5.528134506249169355e-01 -3.023807829257628699e-01 3.057036769260830233e-01 -8.538279492178337815e-01 9.347035485032497704e-01 2.230490283721886513e+00 -6.864547760098153040e-01 -7.599919320456847149e-01 1.546246142392878609e-01 8.019353698240995199e-01 1.218285966221692274e+00 2.640729367399917482e+00 -1.670930772064750380e+00 8.924772893537151752e-01 3.415875382730875209e-01 -5.189946995077616698e-01 3.316831338564724119e-01 6.227901427087255692e-01 8.768748056400484936e-01 -3.089052148471590487e-01 -4.081472339730943810e-01 7.391269139464906601e-01 -4.954547054584491628e-01 -6.286702561246434451e-01 3.696675866598848614e-01 -3.040046918166652290e-01 5.399929007617194632e-01 -3.939146341369968995e-01 -1.418401626674586469e+00 9.249878630742728314e-01 8.357680048994733379e-01 -1.352730504300570624e+00 -5.687332084949126010e-01 -1.234916377064210480e-01 -9.980061704493060626e-01 -5.658689993364813403e-02 -2.450158671111979033e-02 -8.110730712146425603e-01 -2.368248459828939667e-01 -7.322245298291434334e-01 -9.504068194691701610e-01 -3.701699802591286170e-01 -2.295054288983136848e-01 -1.027684930913942196e+00 -1.173293199841931145e+00 -1.012553987559033475e+00 -9.606063865530994894e-01 -5.418024433162111908e-01 1.761189870223246245e+00 -1.346388106498040749e+00 1.451243872730366424e-01 -1.227625242116742621e+00 -8.769174859560536772e-01 3.980042311633890662e-01 -1.293422862776749893e+00 8.388841821885386629e-01 -5.408459928611516476e-01 1.887755519123401893e-02 3.668342307419393267e-01 -6.624694668561577071e-01 -7.205897728419499160e-01 -9.221102841782975457e-01 6.841001595400741930e-01 4.940292857480054201e-01 8.604469977433865102e-01 8.111214079580703062e-02 -8.688776457061300196e-01 9.631960018712072413e-01 1.086512290327533853e-01 -1.292961606831487309e+00 1.676823740997537282e+00 -7.001525863441589170e-02 6.280377646946845305e-01 -2.543474296961267811e-01 -8.811202115308938154e-01 -6.952320087073493582e-01 -4.593728691516607010e-01 -1.066455627129067718e+00 1.148496450463497298e-01 -2.138222125387090611e-01 -5.356940159206984298e-01 1.139429711526071420e+00 -4.795215778509095972e-01 1.007425664769619589e+00 -1.872942878366171682e+00 2.759745228353199797e-01 -9.235171919444499222e-01 -1.945463420128034082e+00 4.908961391766729077e-01 -5.263336569779828444e-01 8.344094338767488184e-01 -1.722752389005367535e-01 -9.213497518003227471e-02 -1.129383382203221764e+00 -2.470778920169985626e-01 -6.760798596757916501e-01 4.076602669940935231e-01 -4.511206557630599301e-01 6.792042644956532982e-01 -7.085035301023143162e-02 -1.178271370194314160e+00 1.509200656541583641e+00 7.101150976970223017e-01 -1.117531624091278042e+00 -6.435044941502139348e-01 2.289485279075450797e-01 -6.068369604948702367e-01 -4.573329557348749241e-01 -1.918938889282395532e+00 2.175004330252906792e-01 1.956378782391233528e+00 6.323911569272304689e-01 -4.758202174339635770e-01 -1.594374112226671247e+00 4.727960856456809302e-01 -6.102560137613711744e-01 -1.004206129124926572e-01 -9.935051968831032365e-02 -6.839484644410190883e-01 -6.157782295876537138e-01 1.004086315707706900e+00 3.438897042340027244e-01 -4.604506756859645389e-01 9.431141418596776793e-01 4.879275432212645258e-01 2.924033591733313231e-01 -1.761952459483920208e+00 3.810909989497506811e-01 -2.589059959779030917e-01 -1.513832756379851263e+00 -3.965721265841734011e-01 -1.887339000376843934e-01 -2.169173067801091204e-01 -1.266456616371490096e+00 1.233394283866911523e-01 -8.421829078171449989e-01 3.440701956908446268e-01 -8.686333908856176400e-01 -7.811767954045815143e-01 1.845573997172572089e-01 -3.013965645542659444e-01 -2.111112411413571532e-01 -7.002400038588686704e-02 1.212377056447987433e+00 -1.297532000188783119e+00 -2.153581896942268759e-01 4.980834015478389776e-01 -2.686756745777302280e-01 -4.762968999994691144e-01 -1.315840827313729200e+00 -1.407642073275840122e+00 9.577555471322120040e-01 -2.168893845974694923e+00 -1.866394792293736282e-01 2.817636191918047039e-01 -1.354981762414684265e+00 7.439081377804395157e-01 4.012983288059224773e-01 1.052607664357693373e+00 1.413309813553080552e-01 1.885498604581866466e+00 3.001387807837950228e-01 1.572589667561000437e-01 3.955863655506521859e-01 6.563173307032901249e-01 5.981332613538272724e-01 -2.998009378004755643e-01 2.497519423699024799e+00 -7.670429259380384668e-01 -3.090337700158499179e-01 -2.121160283398445812e-01 3.835798270156048906e-01 -7.074673754426663574e-01 -1.247220135149271103e+00 1.575834914239431228e+00 8.739375771458006703e-01 9.104966102387693772e-01 -8.020603254480669353e-01 -1.951560534668702385e+00 -9.202241227432658155e-01 2.793622086406603033e-01 -6.795847877949779958e-01 7.511946447418348383e-01 1.065433870648313075e+00 -1.886012311035954458e-01 1.690341059875039020e-01 -5.376423980573764583e-01 2.951549540039895558e-01 6.335568951969187124e-01 7.079882809862014792e-01 1.927324800046434916e-01 1.747078112245718184e+00 -1.606638275319774767e+00 -9.026794275410182644e-01 -5.047703272024604004e-01 -4.959401297754256754e-02 2.706225140523839667e-01 1.000945970046927536e-01 -1.974823363774317331e-01 8.502191485223452583e-01 -2.167954364801902376e-03 7.151560029717265454e-01 2.340578245319928363e-02 -7.809325405840689127e-01 -4.488853384898640608e-01 -5.567842626754389013e-01 -5.342799090650994787e-01 1.582824715871488097e+00 1.915518293353870305e-01 -4.534680731433542444e-01 2.112727064332327875e-01 1.178747538539145268e+00 1.328854724150637878e+00 1.354531819324266140e+00 8.936507409335249230e-01 2.476383925524905383e-02 -1.190839951926877971e+00 -1.259478641814952615e+00 1.506784333590871494e+00 6.860701389450922782e-01 7.603688558002861253e-01 -4.233578815325916289e-01 -7.932676661302899557e-02 7.954109379027032301e-01 7.615227669944548694e-01 1.944880293882852440e-01 -1.293655804742417648e-01 1.944854068628439903e+00 2.358899927961743415e-01 4.512224714566631101e-01 9.074225990450344170e-01 1.892229238993842558e-02 2.262493835857127544e-01 2.010641919095626839e+00 7.165654818412526827e-01 -1.805480725381955143e+00 3.811460205619504049e-01 1.015807461768260644e+00 -4.342727295751164784e-01 -2.997443735262515785e-02 1.910329806745509479e-03 -3.692443830445547581e-01 1.744064779091605510e+00 -1.136092933567532715e+00 3.091767233634341028e-01 -1.358056802049768530e-01 -1.447913265419924711e+00 4.113405443633742081e-02