2.628769650026047202e+02 -3.752690325177937325e+01 1.454998921999708195e+01 -3.752690325177937325e+01 2.567953341365476945e+02 1.467052981094139064e+01 1.454998921999708195e+01 1.467052981094139064e+01 2.778367655393216182e+02
6.646681982172405867e+01 8.433535988754895740e+00 -4.936730029032528222e+00 8.433535988754895740e+00 6.822586032998141548e+01 1.149705746873975443e+01 -4.936730029032528222e+00 1.149705746873975443e+01 7.254663840118179507e+01
1.902325358231967698e+02 -3.825387820271075157e+01 -5.707993288197656057e+00 -3.825387820271075157e+01 1.908925186955757454e+02 1.327967460265624133e+01 -5.707993288197656057e+00 1.327967460265624133e+01 1.974916891637923015e+02
2.992201354253945169e+02 -1.705123979765451381e+01 1.773312138095968393e+01 -1.705123979765451381e+01 2.569353502819224673e+02 -7.305316829038635440e+00 1.773312138095968393e+01 -7.305316829038635440e+00 2.827257306386418350e+02
3.101363248986321537e+02 8.352821189067563878e+00 1.847144330135786561e+01 8.352821189067563878e+00 3.040017448904051207e+02 7.317806129815074279e-01 1.847144330135786561e+01 7.317806129815074279e-01 2.847486612334459437e+02
3.038358273961053442e+02 4.553694277921057854e+00 -7.295206463515610196e+00 4.553694277921057854e+00 2.559168805365224841e+02 -1.047690554201827062e+01 -7.295206463515610196e+00 -1.047690554201827062e+01 3.009401580628163515e+02
1.482530598080759319e+02 1.833790139637262584e+01 -2.527237665407995326e+00 1.833790139637262584e+01 1.135796414967208676e+02 1.063363852842892321e+01 -2.527237665407995326e+00 1.063363852842892321e+01 1.335931357870879594e+02
3.324090478746124404e+02 1.858989536339698745e+01 4.628414537673664952e+00 1.858989536339698745e+01 3.225652844708501448e+02 9.280527316526216097e+00 4.628414537673664952e+00 9.280527316526216097e+00 2.518903010203470387e+02
2.689102388855715731e+02 -2.927566129393635563e+01 -6.476407608349743050e+00 -2.927566129393635563e+01 2.599593221691628173e+02 1.205929853874989632e+01 -6.476407608349743050e+00 1.205929853874989632e+01 3.022922560204578417e+02
2.319328081826101595e+02 3.273403928945302255e+01 -4.086069624214193396e+00 3.273403928945302255e+01 2.063922243383609043e+02 8.312194988643211602e+00 -4.086069624214193396e+00 8.312194988643211602e+00 2.454736523732182434e+02
3.459079218464716519e+02 2.560438925865442528e+01 -1.910040635342772575e+01 2.560438925865442528e+01 3.121476548545520586e+02 -8.876006125644627431e+00 -1.910040635342772575e+01 -8.876006125644627431e+00 3.560529600292303485e+02
2.107867323257747785e+02 2.254229204402794196e+01 4.768760672554773761e-01 2.254229204402794196e+01 1.910331468157726533e+02 1.017326091111831765e+01 4.768760672554773761e-01 1.017326091111831765e+01 2.162911581841818247e+02
2.887537499904738070e+02 1.638155291535228031e+01 -7.109625015171284090e+00 1.638155291535228031e+01 2.853321197086604002e+02 -5.152778481707887437e+00 -7.109625015171284090e+00 -5.152778481707887437e+00 3.067010921471002689e+02
3.508487215255904630e+02 1.245489295444187761e+01 -1.110078066117262274e+01 1.245489295444187761e+01 2.779600661406468021e+02 -1.376270739208077210e+01 -1.110078066117262274e+01 -1.376270739208077210e+01 3.033811831248308977e+02
2.524503221189464170e+02 8.257604471875406915e+00 1.011933268657142060e+00 8.257604471875406915e+00 2.487764657141074736e+02 -5.584704797524264741e+00 1.011933268657142060e+00 -5.584704797524264741e+00 2.267957520318389300e+02
1.618814227751252943e+01 -1.018386980977629186e+01 4.648827130095630089e+00 -1.018386980977629186e+01 5.082290663005714748e+01 1.112540547580518790e+01 4.648827130095630089e+00 1.112540547580518790e+01 1.500791727122395613e+01
3.211753615999156750e+02 5.698878366930035799e-01 1.917062515414357460e+00 5.698878366930035799e-01 2.887219735368508395e+02 7.559923879041916983e+00 1.917062515414357460e+00 7.559923879041916983e+00 3.090601400517867319e+02
3.405046615967225989e+02 1.860228333659377498e+01 -3.025085406556962564e+00 1.860228333659377498e+01 3.440901264521966709e+02 1.187602001452692591e+01 -3.025085406556962564e+00 1.187602001452692591e+01 3.284064441694482070e+02
2.391621836128734628e+02 1.337160842175607600e+00 -3.618690964635249863e+00 1.337160842175607600e+00 2.284452627218643954e+02 1.410689875159997086e+01 -3.618690964635249863e+00 1.410689875159997086e+01 2.694826289601171538e+02
3.162940022454870359e+02 2.913862626084699414e+01 6.346768286693953875e+00 2.913862626084699414e+01 3.109791708317283678e+02 -1.592129830703103899e+01 6.346768286693953875e+00 -1.592129830703103899e+01 2.797413229195516351e+02
3.348034752215478420e+02 1.657971183271837745e+01 -1.309788863024988181e+01 1.657971183271837745e+01 3.280813680943313102e+02 1.374405249564703624e+01 -1.309788863024988181e+01 1.374405249564703624e+01 3.495176826598440698e+02
2.381706418595315427e+02 -3.661752387232767347e+01 -2.979439494767236241e+00 -3.661752387232767347e+01 2.250122673995681453e+02 1.819374695181154022e-01 -2.979439494767236241e+00 1.819374695181154022e-01 2.508326707750005937e+02
2.969545020175608556e+02 -4.001760512389632396e+01 2.993777672169372650e+01 -4.001760512389632396e+01 2.950398321942508915e+02 1.069562552917103204e+01 2.993777672169372650e+01 1.069562552917103204e+01 3.052932972658213657e+02
1.980675253568984999e+02 -9.883341991408659766e+00 -5.654284066578806112e+00 -9.883341991408659766e+00 2.301435538724358310e+02 9.298419256750376505e+00 -5.654284066578806112e+00 9.298419256750376505e+00 2.403491073857781259e+02
1.653400201083823902e+02 2.498286701228109052e+01 -9.678128615841364635e+00 2.498286701228109052e+01 1.679795826888996828e+02 -8.448645674965232999e+00 -9.678128615841364635e+00 -8.448645674965232999e+00 1.769362130496705277e+02
2.766874008547684411e+02 -3.202554062807107726e+01 8.298036578249812223e+00 -3.202554062807107726e+01 2.813139374137632558e+02 1.738857631550546046e+01 8.298036578249812223e+00 1.738857631550546046e+01 2.808114540259928731e+02
2.127847189011541218e+02 -4.471500895219319149e-01 1.588604636999136588e+01 -4.471500895219319149e-01 2.017825800820486677e+02 -2.071758765901534072e-01 1.588604636999136588e+01 -2.071758765901534072e-01 2.101216746785565590e+02
2.522463561404844938e+02 -4.826441017989757221e+00 -7.887243074953057542e-01 -4.826441017989757221e+00 2.745426575663788640e+02 -2.382439446802424587e+00 -7.887243074953057542e-01 -2.382439446802424587e+00 2.714139131640910705e+02
3.156401243226081306e+02 -2.315487286633879815e+00 1.944019818364228325e+00 -2.315487286633879815e+00 3.075187065046869179e+02 -1.515265677634615726e-01 1.944019818364228325e+00 -1.515265677634615726e-01 3.365061167325272891e+02
2.045703133776064817e+02 -1.895360625152487088e+01 -9.499255634107948154e+00 -1.895360625152487088e+01 1.970896516614176619e+02 1.358529199917479069e+01 -9.499255634107948154e+00 1.358529199917479069e+01 2.273882453438158677e+02
1.505612372749766337e+02 8.258425947181594617e-01 -3.892537662587216118e+00 8.258425947181594617e-01 1.461501063805795297e+02 3.713053401923122276e+00 -3.892537662587216118e+00 3.713053401923122276e+00 1.739842279174756641e+02
2.953775310899281976e+02 1.263350812872729811e+01 -4.372423956508695753e+00 1.263350812872729811e+01 2.821102334564536136e+02 1.773263900821467587e+01 -4.372423956508695753e+00 1.773263900821467587e+01 3.124055210319177718e+02
1.500644312004210690e+02 1.029045458886300324e+01 -1.462299324001055290e+01 1.029045458886300324e+01 1.887096843412828662e+02 -4.806332730568667333e-02 -1.462299324001055290e+01 -4.806332730568667333e-02 1.610534483131700370e+02
2.550203898057725667e+02 -6.035999351610761288e+00 9.119148459763078307e+00 -6.035999351610761288e+00 2.480314571499251031e+02 -8.503773799572367231e-01 9.119148459763078307e+00 -8.503773799572367231e-01 2.258461166987955835e+02
1.281492450817608244e+02 2.096977282969393563e+00 -7.253030490213509651e+00 2.096977282969393563e+00 1.351897504681353723e+02 -1.170927230502471872e+01 -7.253030490213509651e+00 -1.170927230502471872e+01 1.558154012782418363e+02
2.265049983354905692e+02 1.073496192137581673e+01 -4.433255932729061932e+00 1.073496192137581673e+01 2.167715646493622046e+02 1.625887058378513572e+01 -4.433255932729061932e+00 1.625887058378513572e+01 2.262890687805670495e+02
3.011893936316006943e+02 1.864475115529146132e+00 -4.072138603896731546e+00 1.864475115529146132e+00 2.650134472750820009e+02 -1.911348338639275113e+01 -4.072138603896731546e+00 -1.911348338639275113e+01 2.607354383525578783e+02
2.262248835846316410e+02 9.803219418229582871e+00 3.219526902781665534e+00 9.803219418229582871e+00 2.128655698000862060e+02 1.434844542030378811e+00 3.219526902781665534e+00 1.434844542030378811e+00 1.830198565472105372e+02
1.654861109822093113e+02 -8.173354795060587819e+00 -7.719649037315686080e+00 -8.173354795060587819e+00 1.895867876581882854e+02 3.353555701280099388e+00 -7.719649037315686080e+00 3.353555701280099388e+00 2.040121486059887275e+02
2.319544543822159142e+02 1.244494286997813859e+01 2.085782904657087489e+00 1.244494286997813859e+01 2.167287644990364583e+02 1.666094912913259662e+01 2.085782904657087489e+00 1.666094912913259662e+01 2.428023941413933358e+02
1.101401956082983276e+02 -6.963699060904597005e+00 -4.944412930865135003e+00 -6.963699060904597005e+00 1.626988147932543995e+02 3.126158167047238123e+01 -4.944412930865135003e+00 3.126158167047238123e+01 1.407126354375309916e+02
2.507558739263426162e+02 -9.997805101122201776e+00 -1.749256771855576176e+01 -9.997805101122201776e+00 2.712517405450310548e+02 -3.793794726184552601e+00 -1.749256771855576176e+01 -3.793794726184552601e+00 2.898911521194746115e+02
9.339120475403798594e+01 -3.244550872276600550e+00 -6.232535062755361288e+00 -3.244550872276600550e+00 1.122033396605661437e+02 7.038540047548391243e+00 -6.232535062755361288e+00 7.038540047548391243e+00 1.250462076570713492e+02
1.781458702613369383e+02 1.322315413015738272e+01 -1.223990254501489794e+01 1.322315413015738272e+01 1.572160085125277078e+02 5.575573949221505288e+00 -1.223990254501489794e+01 5.575573949221505288e+00 2.029321769246612632e+02
1.980079683205138394e+02 3.944431092726377486e+00 -1.361454361227188237e+01 3.944431092726377486e+00 1.877822683892578937e+02 -2.085723372363547412e+01 -1.361454361227188237e+01 -2.085723372363547412e+01 1.779497679590993187e+02
2.813341617157652195e+02 -2.423491237155507605e+01 2.584173190405651077e+00 -2.423491237155507605e+01 3.007686254334019509e+02 1.169885011503028238e+01 2.584173190405651077e+00 1.169885011503028238e+01 2.768760614476894943e+02
2.814615561857300463e+02 -1.205645576574499410e-02 1.686678739781660852e+01 -1.205645576574499410e-02 3.054119692442119458e+02 1.208212615276313606e+01 1.686678739781660852e+01 1.208212615276313606e+01 2.848768464374514906e+02
1.034962046878079320e+02 4.974633646748486959e-01 -1.111367679995147384e+01 4.974633646748486959e-01 1.098619198315730614e+02 9.489948006812252146e+00 -1.111367679995147384e+01 9.489948006812252146e+00 1.042447529127356063e+02
1.542768071811935897e+02 -1.572475227130023079e+01 3.487976706044226383e+00 -1.572475227130023079e+01 1.161483739580092447e+02 3.125949433967047053e+00 3.487976706044226383e+00 3.125949433967047053e+00 1.610289260563633889e+02
2.957430239403481096e+02 1.153219203812007798e+01 9.668313926409766168e+00 1.153219203812007798e+01 2.807536178329012841e+02 3.831093172285529924e+00 9.668313926409766168e+00 3.831093172285529924e+00 2.935402568502514100e+02
3.418482208032833682e+02 1.762591166752873306e+01 -9.664911121381818404e+00 1.762591166752873306e+01 3.215979737755089900e+02 -4.280506965632929206e-01 -9.664911121381818404e+00 -4.280506965632929206e-01 3.468603278652942663e+02
1.537334855134507166e+02 -2.158952092958725810e+00 -1.384291728354375195e+00 -2.158952092958725810e+00 1.407743994195388098e+02 -2.737373287905411789e+00 -1.384291728354375195e+00 -2.737373287905411789e+00 1.679566415596239324e+02
2.394351309801303103e+02 -4.061188143625138736e+01 -2.506931442523373299e+00 -4.061188143625138736e+01 2.377232283347844941e+02 -1.255189234623488304e+00 -2.506931442523373299e+00 -1.255189234623488304e+00 2.421275398732864232e+02
1.457919516789258410e+02 -6.133511133408639182e+00 7.214591188903559660e-01 -6.133511133408639182e+00 1.247679278453746292e+02 -2.270581255692530931e+01 7.214591188903559660e-01 -2.270581255692530931e+01 1.492628490759925626e+02
2.814939675410697077e+02 9.805728700533554942e+00 -6.121892904111080114e+00 9.805728700533554942e+00 2.127540612720173954e+02 -1.079019330326413417e+01 -6.121892904111080114e+00 -1.079019330326413417e+01 2.512773155386626058e+02
2.103730580420845797e+02 -2.009258248377595368e+00 2.216377168412957133e+01 -2.009258248377595368e+00 1.994484079241491088e+02 -2.738379519803047835e+00 2.216377168412957133e+01 -2.738379519803047835e+00 1.972427836685119757e+02
2.408322599576647178e+02 9.074152623392112815e+00 1.529755561536364006e+01 9.074152623392112815e+00 2.618221990398036496e+02 1.025888163524770391e+01 1.529755561536364006e+01 1.025888163524770391e+01 2.366701369972484770e+02
1.012366327125713639e+02 -2.374469195208367633e+00 3.594581987747899610e-01 -2.374469195208367633e+00 9.793267921235488416e+01 1.087099634490392042e+01 3.594581987747899610e-01 1.087099634490392042e+01 9.538692272033637209e+01
1.088703282011055791e+02 5.699235378348438630e+00 8.250634756432281947e+00 5.699235378348438630e+00 9.670002463679225002e+01 -9.159679938978758429e+00 8.250634756432281947e+00 -9.159679938978758429e+00 1.030482698224941345e+02
2.904055649764859481e+02 2.679268516386634147e+01 2.435186047694519829e+01 2.679268516386634147e+01 2.842396029957058090e+02 -5.107889891336142796e+00 2.435186047694519829e+01 -5.107889891336142796e+00 2.784556597224129177e+02
3.095643707151324406e+02 1.196457720712067996e+01 -5.638894196323978925e+00 1.196457720712067996e+01 2.880581714520501464e+02 -6.239615691838854339e+00 -5.638894196323978925e+00 -6.239615691838854339e+00 3.054240023123738297e+02
3.434896455851543919e+02 4.488479832146426673e+01 -8.652048845357580120e+00 4.488479832146426673e+01 3.512520356594030204e+02 4.130077458006903512e+00 -8.652048845357580120e+00 4.130077458006903512e+00 2.933863092125129128e+02
1.038591824793028735e+02 -8.485664589742251351e+00 1.259292821803254725e+01 -8.485664589742251351e+00 1.121767616576163249e+02 -3.454258003236547303e+00 1.259292821803254725e+01 -3.454258003236547303e+00 1.068002664932199224e+02
3.435015735647797328e+02 2.355026532079143919e+01 -1.332847597171137188e+01 2.355026532079143919e+01 3.165372416774196722e+02 -5.350030729979903477e+00 -1.332847597171137188e+01 -5.350030729979903477e+00 3.497564042202355949e+02
1.808286443146053557e+02 1.862665853401637150e+01 -5.035382522080941392e+00 1.862665853401637150e+01 1.650665933503535712e+02 1.078231255706189984e+01 -5.035382522080941392e+00 1.078231255706189984e+01 1.701643660220438221e+02
7.360209821926045493e+01 1.526239296381438137e+01 2.513212577565008843e+01 1.526239296381438137e+01 6.788400291703946721e+01 1.575460166497789238e+01 2.513212577565008843e+01 1.575460166497789238e+01 6.713570151862538182e+01
3.330617933327028481e+02 2.173806531603628400e+01 -1.131368848979649933e+01 2.173806531603628400e+01 2.793210613421634321e+02 -1.541061035874467322e+01 -1.131368848979649933e+01 -1.541061035874467322e+01 3.190973768304524469e+02
1.664704793966814407e+02 -1.282613282451328196e+01 5.755308791339752705e-01 -1.282613282451328196e+01 1.841615807214795666e+02 2.336294794290949994e+01 5.755308791339752705e-01 2.336294794290949994e+01 1.953046815783820307e+02
3.174502310169377779e+02 1.742668814963695567e+01 3.834155158127825924e+00 1.742668814963695567e+01 2.883937391365823828e+02 -2.551427119335710536e+00 3.834155158127825924e+00 -2.551427119335710536e+00 3.139404973455962704e+02
1.722582107336484114e+02 -2.434914003369032187e+01 -1.478995801135615018e+00 -2.434914003369032187e+01 1.857372517555346576e+02 4.792047071418895854e+00 -1.478995801135615018e+00 4.792047071418895854e+00 1.977424250974871995e+02
5.976606107988606453e+01 -4.807149841869780005e+00 1.294491438072866707e+00 -4.807149841869780005e+00 7.865312629634398434e+01 3.642866561931064062e+00 1.294491438072866707e+00 3.642866561931064062e+00 5.643560947775508652e+01
3.532383069012117289e+02 1.314271848520038155e+01 -3.488592763725196022e+01 1.314271848520038155e+01 3.081700868032312428e+02 -1.665325700413925958e+01 -3.488592763725196022e+01 -1.665325700413925958e+01 3.411233386193225670e+02
1.982325693182811222e+02 5.375322406299053668e+00 -1.544713703468052479e+01 5.375322406299053668e+00 2.067146863886144388e+02 1.575196796556793544e+01 -1.544713703468052479e+01 1.575196796556793544e+01 2.357376261204624086e+02
2.501765690007171656e+02 7.722164068462023856e+00 1.994287985945041308e-01 7.722164068462023856e+00 2.622262851854993642e+02 -8.117180966584873758e+00 1.994287985945041308e-01 -8.117180966584873758e+00 2.058181025391671710e+02
2.010040908635118626e+02 -2.789813146178416048e+01 1.118405300337625263e+01 -2.789813146178416048e+01 2.132708840883958885e+02 1.215806322233334136e+01 1.118405300337625263e+01 1.215806322233334136e+01 2.146102811986125403e+02
3.185242945419001899e+02 8.217319866519282812e+00 -1.744483115699793530e+00 8.217319866519282812e+00 2.742582802741649175e+02 -6.803184858393755974e+00 -1.744483115699793530e+00 -6.803184858393755974e+00 3.192144372939450250e+02
3.136912141160046303e+02 -1.054084080397480605e+01 1.818237783050115652e+01 -1.054084080397480605e+01 2.715605607970312008e+02 2.762011533290195664e-01 1.818237783050115652e+01 2.762011533290195664e-01 3.123512079993397492e+02
3.054507238159441158e+02 4.843309263136263532e+00 6.697398329447821652e+00 4.843309263136263532e+00 3.084090681001237044e+02 2.905609650060783533e+00 6.697398329447821652e+00 2.905609650060783533e+00 3.016729581230428039e+02
2.257075522133167453e+02 1.759516996911830233e+01 -3.138758758110574920e+00 1.759516996911830233e+01 2.003673683093138322e+02 -8.647383205336801382e+00 -3.138758758110574920e+00 -8.647383205336801382e+00 1.992912151878073246e+02
2.694360721864274524e+02 2.205892330372789445e+01 -2.861147982876618645e+00 2.205892330372789445e+01 2.139316834827669993e+02 6.644429134899135114e+00 -2.861147982876618645e+00 6.644429134899135114e+00 2.509247506943919177e+02
2.823274611513246555e+02 -3.500116463211590201e+01 5.412303794140728819e+00 -3.500116463211590201e+01 2.754553558916509814e+02 7.050884940137260415e+00 5.412303794140728819e+00 7.050884940137260415e+00 2.981302894361074323e+02
2.119556486388290466e+02 2.646893147213723907e+01 -2.099712135930884926e+01 2.646893147213723907e+01 2.100703882524821893e+02 1.895627275885908736e+00 -2.099712135930884926e+01 1.895627275885908736e+00 2.144604429012723870e+02
1.960149343996719722e+02 -2.342488805438210164e+01 -6.838389197812593245e+00 -2.342488805438210164e+01 2.072135626228349281e+02 4.367188720467984453e+00 -6.838389197812593245e+00 4.367188720467984453e+00 1.999817747072352461e+02
3.188049551859200506e+02 -1.253966667254476874e+01 1.061535947168519556e+01 -1.253966667254476874e+01 3.414445177190507366e+02 -1.757835503803032040e+01 1.061535947168519556e+01 -1.757835503803032040e+01 3.194391996031188796e+02
3.217679025685316674e+02 2.850660110287419968e+01 -1.809132287929579519e+01 2.850660110287419968e+01 3.563986573703058411e+02 7.081389945428415267e+00 -1.809132287929579519e+01 7.081389945428415267e+00 2.835166363267514384e+02
3.080793348486005812e+02 -1.577069334825737634e+01 1.007180924542719858e+01 -1.577069334825737634e+01 2.702619518989649237e+02 -1.816510508196316653e+00 1.007180924542719858e+01 -1.816510508196316653e+00 3.235310812092160972e+02
1.397127140635576552e+02 -4.830766845766827355e-01 -6.129937923674932065e+00 -4.830766845766827355e-01 1.416315380653630314e+02 6.190662845470975562e+00 -6.129937923674932065e+00 6.190662845470975562e+00 1.513534819550448276e+02
5.046769679057091196e+01 2.202146977865574673e+00 1.376343833565002228e+01 2.202146977865574673e+00 2.631820772014951615e+01 1.077828401244718681e-01 1.376343833565002228e+01 1.077828401244718681e-01 5.415953483543754032e+01
2.554252177757660149e+02 2.802064992085809081e+01 -1.506766711345026089e+01 2.802064992085809081e+01 2.227165803688570236e+02 1.677259537675051249e+01 -1.506766711345026089e+01 1.677259537675051249e+01 2.541487138566112947e+02
2.914719633293923380e+02 3.007335953457604560e+01 1.453694599274321320e+01 3.007335953457604560e+01 2.984170258811811323e+02 -2.967479881999575131e+00 1.453694599274321320e+01 -2.967479881999575131e+00 2.892586126322357245e+02
3.075622259246648582e+02 8.219638252310375037e+00 -3.478030007462894257e+00 8.219638252310375037e+00 2.755207463543268318e+02 2.056079024955284051e+00 -3.478030007462894257e+00 2.056079024955284051e+00 3.154319460162652717e+02
2.609078172245435212e+02 7.173068309956603272e+00 1.310267575635081450e+01 7.173068309956603272e+00 2.689797339515159820e+02 6.763244181283510237e+00 1.310267575635081450e+01 6.763244181283510237e+00 2.496207544887662095e+02
2.850952147042586944e+02 7.467294839621820834e+00 3.589203840003449830e+00 7.467294839621820834e+00 2.721903138177301571e+02 -1.815644764213565576e+00 3.589203840003449830e+00 -1.815644764213565576e+00 2.701713006306503075e+02
3.147279484865793364e+01 8.162376870993496070e+00 -2.245330269511969234e+00 8.162376870993496070e+00 2.202913271647152271e+01 1.284466741021541836e+01 -2.245330269511969234e+00 1.284466741021541836e+01 6.694900584655198550e+00
1.371483597111544270e+02 1.037055086664911840e+01 -9.464685259432943365e-01 1.037055086664911840e+01 1.139170141515970300e+02 -8.175166747114770871e+00 -9.464685259432943365e-01 -8.175166747114770871e+00 1.352365213294935131e+02
7.875596928787949480e+01 -1.832302478294969506e+00 7.410158197278298609e+00 -1.832302478294969506e+00 6.803669710491857359e+01 -2.108880694685280055e+00 7.410158197278298609e+00 -2.108880694685280055e+00 8.749417372703716467e+01
3.207619397781424482e+02 2.070256745727407832e+01 -1.081336684122037717e+01 2.070256745727407832e+01 2.848641783408081096e+02 -3.997721010569664779e-01 -1.081336684122037717e+01 -3.997721010569664779e-01 2.857490815094351433e+02
8.852913528152554079e+01 -3.289827188661177182e+00 -3.383916852570144629e-01 -3.289827188661177182e+00 5.192277407389259025e+01 -1.377500251752577398e+01 -3.383916852570144629e-01 -1.377500251752577398e+01 6.601252906804711529e+01
2.169910355007006615e+02 1.599089187716152383e+00 -1.272916732180581079e+01 1.599089187716152383e+00 2.170227360008011601e+02 -4.184535172606086206e+00 -1.272916732180581079e+01 -4.184535172606086206e+00 2.432060378008119699e+02
1.548477364394061908e+02 -7.563421672341484658e+00 4.743351053019941865e+00 -7.563421672341484658e+00 1.695050783445703360e+02 3.091183278215376973e+00 4.743351053019941865e+00 3.091183278215376973e+00 1.618847669274107375e+02
1.931772003366452850e+02 -2.325880087407334784e+01 6.014615284753190849e+00 -2.325880087407334784e+01 1.904429332640864629e+02 -3.267103025263800475e+00 6.014615284753190849e+00 -3.267103025263800475e+00 1.873100580792557821e+02
2.999764594161429443e+01 3.872766626501685128e+00 1.136718367424352572e+01 3.872766626501685128e+00 2.296738201328857798e+01 -1.049349141010686104e+01 1.136718367424352572e+01 -1.049349141010686104e+01 2.134378457246807770e+01
4.933226599319004890e+01 -2.635795563024194266e+00 3.187615558168582997e+00 -2.635795563024194266e+00 5.371469599018247010e+01 2.643863288759640717e+00 3.187615558168582997e+00 2.643863288759640717e+00 5.336147451285427934e+01
1.446681654188157609e+02 -1.430947202350648206e+00 -9.233535920240155903e+00 -1.430947202350648206e+00 1.227215555177230186e+02 1.044318582204873103e+01 -9.233535920240155903e+00 1.044318582204873103e+01 1.582525052519075928e+02
1.093292741409619282e+02 1.033394825323889776e+01 -4.753421979339568892e+00 1.033394825323889776e+01 1.145463847424696553e+02 8.961611181235655366e+00 -4.753421979339568892e+00 8.961611181235655366e+00 1.102019973387036202e+02
7.476097062365812462e+01 -2.037540833451378042e+00 5.328327564566310848e+00 -2.037540833451378042e+00 7.458813043201118376e+01 -5.305088759212456040e+00 5.328327564566310848e+00 -5.305088759212456040e+00 7.824692893446038511e+01
2.138017339832377957e+02 -4.161907767562200178e+01 -2.407309361509897716e+00 -4.161907767562200178e+01 1.965628158102450413e+02 1.111049634516561291e+01 -2.407309361509897716e+00 1.111049634516561291e+01 2.296360324084376430e+02
2.169838835381182776e+02 -5.305038286112787382e+00 1.529256374636716131e+01 -5.305038286112787382e+00 2.248816312602873211e+02 1.098577881014331403e+01 1.529256374636716131e+01 1.098577881014331403e+01 2.310597727800410439e+02
2.356799440090635471e+02 -1.127151322070841566e+01 -5.484149101984017172e+00 -1.127151322070841566e+01 2.524782465484612430e+02 -7.209549962396629930e+00 -5.484149101984017172e+00 -7.209549962396629930e+00 2.690007911907059110e+02
1.436820405402264100e+02 2.486915152813342189e+01 -6.589896793241554640e+00 2.486915152813342189e+01 1.342974639194774511e+02 -8.849247928051992673e+00 -6.589896793241554640e+00 -8.849247928051992673e+00 1.364287588137476916e+02
2.307423976678598763e+02 -2.794179182005619921e+01 6.291274023256991921e-01 -2.794179182005619921e+01 2.270321495415378195e+02 5.676724385977818699e+00 6.291274023256991921e-01 5.676724385977818699e+00 2.247661375344967496e+02
2.460419518537226793e+02 2.355761958788268728e+01 -4.919644416104246076e+00 2.355761958788268728e+01 2.160445152445275596e+02 1.172702098234935519e+01 -4.919644416104246076e+00 1.172702098234935519e+01 2.330181872074245746e+02
5.131751486351278402e+01 2.108715684013195632e-03 -6.231305260426760029e+00 2.108715684013195632e-03 5.525654885575999486e+01 6.153933547617218558e+00 -6.231305260426760029e+00 6.153933547617218558e+00 3.515668313311785198e+01
3.522059180488762422e+02 -2.635614079878116200e+01 2.513405564978767615e+01 -2.635614079878116200e+01 3.319325484436701004e+02 -1.388424830593894299e+01 2.513405564978767615e+01 -1.388424830593894299e+01 3.232379770856289269e+02
2.960441241957506122e+02 -3.783765602650249971e+00 -2.311130241719086875e+00 -3.783765602650249971e+00 2.668016756823959099e+02 -6.549998601726880310e+00 -2.311130241719086875e+00 -6.549998601726880310e+00 3.077412757564543426e+02
1.426147821963973854e+02 1.790864301979577888e+01 -1.031143339829581862e+01 1.790864301979577888e+01 1.416374465178077742e+02 -1.060186226858425285e-01 -1.031143339829581862e+01 -1.060186226858425285e-01 1.353428868100959050e+02
3.173764128813786556e+02 -1.878945276094809103e+00 1.402353908137662231e+01 -1.878945276094809103e+00 2.947696941222920941e+02 1.037383959751411400e+00 1.402353908137662231e+01 1.037383959751411400e+00 2.981885864230550851e+02
3.058379261360953478e+02 2.187447259692082469e+01 -1.674294407146387442e+01 2.187447259692082469e+01 2.900467493783264104e+02 -7.440371357515257245e+00 -1.674294407146387442e+01 -7.440371357515257245e+00 3.111511448060152816e+02
3.290055256446051430e+02 1.657520216567736426e+01 -9.201997610712748354e+00 1.657520216567736426e+01 3.075014219696742543e+02 1.024846406855075109e+01 -9.201997610712748354e+00 1.024846406855075109e+01 3.635464490316570050e+02
2.240368009684845561e+02 -6.164335867961485693e-01 1.297301256357331489e+01 -6.164335867961485693e-01 2.248915818037456802e+02 7.453797651099187682e+00 1.297301256357331489e+01 7.453797651099187682e+00 1.940623521092364854e+02
3.134899724091513917e+02 -2.230714256745016666e+00 1.989906789379582008e+01 -2.230714256745016666e+00 3.023993779623688738e+02 3.592067100509474642e+00 1.989906789379582008e+01 3.592067100509474642e+00 2.809212052978899692e+02
3.690895201696206414e+02 2.760680363394475023e+01 -1.609590108627770988e+01 2.760680363394475023e+01 3.522814385202811991e+02 9.272239618018229379e+00 -1.609590108627770988e+01 9.272239618018229379e+00 3.599170308333418120e+02
3.551700347736914978e+02 1.191100951356726334e+01 -3.019188560683878819e+01 1.191100951356726334e+01 3.154199178963838222e+02 -7.845754297433625624e+00 -3.019188560683878819e+01 -7.845754297433625624e+00 3.404854739643728294e+02
1.239880842432552157e+02 -1.227876300611040250e+01 1.689083568890571652e+00 -1.227876300611040250e+01 1.243717194054076742e+02 1.473637148034646138e+01 1.689083568890571652e+00 1.473637148034646138e+01 1.441346107875951077e+02
2.280285884287045803e+02 4.268187877396412944e+01 1.740575588500564930e+00 4.268187877396412944e+01 1.880359807182096290e+02 -5.912142564036621195e+00 1.740575588500564930e+00 -5.912142564036621195e+00 2.297481044982280309e+02
3.377215015691544977e+02 2.268276738915783142e+01 -3.566695880098321059e+00 2.268276738915783142e+01 3.339012077379330208e+02 -3.846879619189761179e+00 -3.566695880098321059e+00 -3.846879619189761179e+00 2.784643080254578535e+02
2.908803037981851958e+02 1.347141029915886890e+01 -9.998451863339994361e+00 1.347141029915886890e+01 2.509446200384425936e+02 8.234403446981758634e+00 -9.998451863339994361e+00 8.234403446981758634e+00 3.028441076709204367e+02
2.469596168611456051e+02 4.330470932665882344e+00 7.537401906756020509e+00 4.330470932665882344e+00 2.671170656452875392e+02 1.128659037649772046e+01 7.537401906756020509e+00 1.128659037649772046e+01 2.306682690545804633e+02
2.194254640990011467e+02 -4.040127140840728437e+00 -7.075808454214192800e+00 -4.040127140840728437e+00 2.079578019800464688e+02 -5.709707021576168273e+00 -7.075808454214192800e+00 -5.709707021576168273e+00 2.366668157176152363e+02
3.531441128795946724e+02 -2.024637135067034066e+01 2.475658214671597079e+01 -2.024637135067034066e+01 3.168541559360868405e+02 -4.542145925585495903e+00 2.475658214671597079e+01 -4.542145925585495903e+00 3.203578469631194139e+02
2.804652096228576283e+02 1.141448349724601563e+01 1.013408089580561899e+01 1.141448349724601563e+01 3.027364432535951551e+02 1.084600123347626877e+01 1.013408089580561899e+01 1.084600123347626877e+01 2.632847777464364754e+02