1.533399999999999963e+01 0.000000000000000000e+00 0.000000000000000000e+00 0.000000000000000000e+00 1.533399999999999963e+01 0.000000000000000000e+00 0.000000000000000000e+00 0.000000000000000000e+00 1.533399999999999963e+01
1.575399999999999956e+01 0.000000000000000000e+00 0.000000000000000000e+00 0.000000000000000000e+00 1.575399999999999956e+01 0.000000000000000000e+00 0.000000000000000000e+00 0.000000000000000000e+00 1.575399999999999956e+01
1.649500000000000099e+01 0.000000000000000000e+00 0.000000000000000000e+00 0.000000000000000000e+00 1.649500000000000099e+01 0.000000000000000000e+00 0.000000000000000000e+00 0.000000000000000000e+00 1.649500000000000099e+01
1.580000000000000071e+01 0.000000000000000000e+00 0.000000000000000000e+00 0.000000000000000000e+00 1.580000000000000071e+01 0.000000000000000000e+00 0.000000000000000000e+00 0.000000000000000000e+00 1.580000000000000071e+01
1.558399999999999963e+01 0.000000000000000000e+00 0.000000000000000000e+00 0.000000000000000000e+00 1.558399999999999963e+01 0.000000000000000000e+00 0.000000000000000000e+00 0.000000000000000000e+00 1.558399999999999963e+01
1.569599999999999973e+01 0.000000000000000000e+00 0.000000000000000000e+00 0.000000000000000000e+00 1.569599999999999973e+01 0.000000000000000000e+00 0.000000000000000000e+00 0.000000000000000000e+00 1.569599999999999973e+01
1.603399999999999892e+01 0.000000000000000000e+00 0.000000000000000000e+00 0.000000000000000000e+00 1.603399999999999892e+01 0.000000000000000000e+00 0.000000000000000000e+00 0.000000000000000000e+00 1.603399999999999892e+01
1.629100000000000037e+01 0.000000000000000000e+00 0.000000000000000000e+00 0.000000000000000000e+00 1.629100000000000037e+01 0.000000000000000000e+00 0.000000000000000000e+00 0.000000000000000000e+00 1.629100000000000037e+01
1.659799999999999898e+01 0.000000000000000000e+00 0.000000000000000000e+00 0.000000000000000000e+00 1.659799999999999898e+01 0.000000000000000000e+00 0.000000000000000000e+00 0.000000000000000000e+00 1.659799999999999898e+01
1.589000000000000057e+01 0.000000000000000000e+00 0.000000000000000000e+00 0.000000000000000000e+00 1.589000000000000057e+01 0.000000000000000000e+00 0.000000000000000000e+00 0.000000000000000000e+00 1.589000000000000057e+01
1.657000000000000028e+01 0.000000000000000000e+00 0.000000000000000000e+00 0.000000000000000000e+00 1.657000000000000028e+01 0.000000000000000000e+00 0.000000000000000000e+00 0.000000000000000000e+00 1.657000000000000028e+01
1.603600000000000136e+01 0.000000000000000000e+00 0.000000000000000000e+00 0.000000000000000000e+00 1.603600000000000136e+01 0.000000000000000000e+00 0.000000000000000000e+00 0.000000000000000000e+00 1.603600000000000136e+01
1.789499999999999957e+01 0.000000000000000000e+00 0.000000000000000000e+00 0.000000000000000000e+00 1.789499999999999957e+01 0.000000000000000000e+00 0.000000000000000000e+00 0.000000000000000000e+00 1.789499999999999957e+01
1.601800000000000068e+01 0.000000000000000000e+00 0.000000000000000000e+00 0.000000000000000000e+00 1.601800000000000068e+01 0.000000000000000000e+00 0.000000000000000000e+00 0.000000000000000000e+00 1.601800000000000068e+01
1.516099999999999959e+01 0.000000000000000000e+00 0.000000000000000000e+00 0.000000000000000000e+00 1.516099999999999959e+01 0.000000000000000000e+00 0.000000000000000000e+00 0.000000000000000000e+00 1.516099999999999959e+01
1.618700000000000117e+01 0.000000000000000000e+00 0.000000000000000000e+00 0.000000000000000000e+00 1.618700000000000117e+01 0.000000000000000000e+00 0.000000000000000000e+00 0.000000000000000000e+00 1.618700000000000117e+01
1.619999999999999929e+01 0.000000000000000000e+00 0.000000000000000000e+00 0.000000000000000000e+00 1.619999999999999929e+01 0.000000000000000000e+00 0.000000000000000000e+00 0.000000000000000000e+00 1.619999999999999929e+01
1.564000000000000057e+01 0.000000000000000000e+00 0.000000000000000000e+00 0.000000000000000000e+00 1.564000000000000057e+01 0.000000000000000000e+00 0.000000000000000000e+00 0.000000000000000000e+00 1.564000000000000057e+01
1.670400000000000063e+01 0.000000000000000000e+00 0.000000000000000000e+00 0.000000000000000000e+00 1.670400000000000063e+01 0.000000000000000000e+00 0.000000000000000000e+00 0.000000000000000000e+00 1.670400000000000063e+01
1.547400000000000020e+01 0.000000000000000000e+00 0.000000000000000000e+00 0.000000000000000000e+00 1.547400000000000020e+01 0.000000000000000000e+00 0.000000000000000000e+00 0.000000000000000000e+00 1.547400000000000020e+01
1.577200000000000024e+01 0.000000000000000000e+00 0.000000000000000000e+00 0.000000000000000000e+00 1.577200000000000024e+01 0.000000000000000000e+00 0.000000000000000000e+00 0.000000000000000000e+00 1.577200000000000024e+01
1.573399999999999999e+01 0.000000000000000000e+00 0.000000000000000000e+00 0.000000000000000000e+00 1.573399999999999999e+01 0.000000000000000000e+00 0.000000000000000000e+00 0.000000000000000000e+00 1.573399999999999999e+01
1.568299999999999983e+01 0.000000000000000000e+00 0.000000000000000000e+00 0.000000000000000000e+00 1.568299999999999983e+01 0.000000000000000000e+00 0.000000000000000000e+00 0.000000000000000000e+00 1.568299999999999983e+01
1.608699999999999974e+01 0.000000000000000000e+00 0.000000000000000000e+00 0.000000000000000000e+00 1.608699999999999974e+01 0.000000000000000000e+00 0.000000000000000000e+00 0.000000000000000000e+00 1.608699999999999974e+01
1.537299999999999933e+01 0.000000000000000000e+00 0.000000000000000000e+00 0.000000000000000000e+00 1.537299999999999933e+01 0.000000000000000000e+00 0.000000000000000000e+00 0.000000000000000000e+00 1.537299999999999933e+01
1.597000000000000064e+01 0.000000000000000000e+00 0.000000000000000000e+00 0.000000000000000000e+00 1.597000000000000064e+01 0.000000000000000000e+00 0.000000000000000000e+00 0.000000000000000000e+00 1.597000000000000064e+01
1.539899999999999913e+01 0.000000000000000000e+00 0.000000000000000000e+00 0.000000000000000000e+00 1.539899999999999913e+01 0.000000000000000000e+00 0.000000000000000000e+00 0.000000000000000000e+00 1.539899999999999913e+01
1.588599999999999923e+01 0.000000000000000000e+00 0.000000000000000000e+00 0.000000000000000000e+00 1.588599999999999923e+01 0.000000000000000000e+00 0.000000000000000000e+00 0.000000000000000000e+00 1.588599999999999923e+01
1.651500000000000057e+01 0.000000000000000000e+00 0.000000000000000000e+00 0.000000000000000000e+00 1.651500000000000057e+01 0.000000000000000000e+00 0.000000000000000000e+00 0.000000000000000000e+00 1.651500000000000057e+01
1.582600000000000051e+01 0.000000000000000000e+00 0.000000000000000000e+00 0.000000000000000000e+00 1.582600000000000051e+01 0.000000000000000000e+00 0.000000000000000000e+00 0.000000000000000000e+00 1.582600000000000051e+01
1.570299999999999940e+01 0.000000000000000000e+00 0.000000000000000000e+00 0.000000000000000000e+00 1.570299999999999940e+01 0.000000000000000000e+00 0.000000000000000000e+00 0.000000000000000000e+00 1.570299999999999940e+01
1.623600000000000065e+01 0.000000000000000000e+00 0.000000000000000000e+00 0.000000000000000000e+00 1.623600000000000065e+01 0.000000000000000000e+00 0.000000000000000000e+00 0.000000000000000000e+00 1.623600000000000065e+01
1.568699999999999939e+01 0.000000000000000000e+00 0.000000000000000000e+00 0.000000000000000000e+00 1.568699999999999939e+01 0.000000000000000000e+00 0.000000000000000000e+00 0.000000000000000000e+00 1.568699999999999939e+01
1.582399999999999984e+01 0.000000000000000000e+00 0.000000000000000000e+00 0.000000000000000000e+00 1.582399999999999984e+01 0.000000000000000000e+00 0.000000000000000000e+00 0.000000000000000000e+00 1.582399999999999984e+01
1.589300000000000068e+01 0.000000000000000000e+00 0.000000000000000000e+00 0.000000000000000000e+00 1.589300000000000068e+01 0.000000000000000000e+00 0.000000000000000000e+00 0.000000000000000000e+00 1.589300000000000068e+01
1.636100000000000065e+01 0.000000000000000000e+00 0.000000000000000000e+00 0.000000000000000000e+00 1.636100000000000065e+01 0.000000000000000000e+00 0.000000000000000000e+00 0.000000000000000000e+00 1.636100000000000065e+01
1.555899999999999928e+01 0.000000000000000000e+00 0.000000000000000000e+00 0.000000000000000000e+00 1.555899999999999928e+01 0.000000000000000000e+00 0.000000000000000000e+00 0.000000000000000000e+00 1.555899999999999928e+01
1.535699999999999932e+01 0.000000000000000000e+00 0.000000000000000000e+00 0.000000000000000000e+00 1.535699999999999932e+01 0.000000000000000000e+00 0.000000000000000000e+00 0.000000000000000000e+00 1.535699999999999932e+01
1.593399999999999928e+01 0.000000000000000000e+00 0.000000000000000000e+00 0.000000000000000000e+00 1.593399999999999928e+01 0.000000000000000000e+00 0.000000000000000000e+00 0.000000000000000000e+00 1.593399999999999928e+01
1.618199999999999861e+01 0.000000000000000000e+00 0.000000000000000000e+00 0.000000000000000000e+00 1.618199999999999861e+01 0.000000000000000000e+00 0.000000000000000000e+00 0.000000000000000000e+00 1.618199999999999861e+01
1.588799999999999990e+01 0.000000000000000000e+00 0.000000000000000000e+00 0.000000000000000000e+00 1.588799999999999990e+01 0.000000000000000000e+00 0.000000000000000000e+00 0.000000000000000000e+00 1.588799999999999990e+01
1.529100000000000037e+01 0.000000000000000000e+00 0.000000000000000000e+00 0.000000000000000000e+00 1.529100000000000037e+01 0.000000000000000000e+00 0.000000000000000000e+00 0.000000000000000000e+00 1.529100000000000037e+01
1.551099999999999923e+01 0.000000000000000000e+00 0.000000000000000000e+00 0.000000000000000000e+00 1.551099999999999923e+01 0.000000000000000000e+00 0.000000000000000000e+00 0.000000000000000000e+00 1.551099999999999923e+01
1.545400000000000063e+01 0.000000000000000000e+00 0.000000000000000000e+00 0.000000000000000000e+00 1.545400000000000063e+01 0.000000000000000000e+00 0.000000000000000000e+00 0.000000000000000000e+00 1.545400000000000063e+01
1.681200000000000117e+01 0.000000000000000000e+00 0.000000000000000000e+00 0.000000000000000000e+00 1.681200000000000117e+01 0.000000000000000000e+00 0.000000000000000000e+00 0.000000000000000000e+00 1.681200000000000117e+01
1.564600000000000080e+01 0.000000000000000000e+00 0.000000000000000000e+00 0.000000000000000000e+00 1.564600000000000080e+01 0.000000000000000000e+00 0.000000000000000000e+00 0.000000000000000000e+00 1.564600000000000080e+01
1.611700000000000088e+01 0.000000000000000000e+00 0.000000000000000000e+00 0.000000000000000000e+00 1.611700000000000088e+01 0.000000000000000000e+00 0.000000000000000000e+00 0.000000000000000000e+00 1.611700000000000088e+01
1.655999999999999872e+01 0.000000000000000000e+00 0.000000000000000000e+00 0.000000000000000000e+00 1.655999999999999872e+01 0.000000000000000000e+00 0.000000000000000000e+00 0.000000000000000000e+00 1.655999999999999872e+01
1.693100000000000094e+01 0.000000000000000000e+00 0.000000000000000000e+00 0.000000000000000000e+00 1.693100000000000094e+01 0.000000000000000000e+00 0.000000000000000000e+00 0.000000000000000000e+00 1.693100000000000094e+01
1.595199999999999996e+01 0.000000000000000000e+00 0.000000000000000000e+00 0.000000000000000000e+00 1.595199999999999996e+01 0.000000000000000000e+00 0.000000000000000000e+00 0.000000000000000000e+00 1.595199999999999996e+01
1.527399999999999913e+01 0.000000000000000000e+00 0.000000000000000000e+00 0.000000000000000000e+00 1.527399999999999913e+01 0.000000000000000000e+00 0.000000000000000000e+00 0.000000000000000000e+00 1.527399999999999913e+01
1.664699999999999847e+01 0.000000000000000000e+00 0.000000000000000000e+00 0.000000000000000000e+00 1.664699999999999847e+01 0.000000000000000000e+00 0.000000000000000000e+00 0.000000000000000000e+00 1.664699999999999847e+01
1.600000000000000000e+01 0.000000000000000000e+00 0.000000000000000000e+00 0.000000000000000000e+00 1.600000000000000000e+01 0.000000000000000000e+00 0.000000000000000000e+00 0.000000000000000000e+00 1.600000000000000000e+01
1.539600000000000080e+01 0.000000000000000000e+00 0.000000000000000000e+00 0.000000000000000000e+00 1.539600000000000080e+01 0.000000000000000000e+00 0.000000000000000000e+00 0.000000000000000000e+00 1.539600000000000080e+01
1.531000000000000050e+01 0.000000000000000000e+00 0.000000000000000000e+00 0.000000000000000000e+00 1.531000000000000050e+01 0.000000000000000000e+00 0.000000000000000000e+00 0.000000000000000000e+00 1.531000000000000050e+01
1.548000000000000043e+01 0.000000000000000000e+00 0.000000000000000000e+00 0.000000000000000000e+00 1.548000000000000043e+01 0.000000000000000000e+00 0.000000000000000000e+00 0.000000000000000000e+00 1.548000000000000043e+01
1.552599999999999980e+01 0.000000000000000000e+00 0.000000000000000000e+00 0.000000000000000000e+00 1.552599999999999980e+01 0.000000000000000000e+00 0.000000000000000000e+00 0.000000000000000000e+00 1.552599999999999980e+01
1.630900000000000105e+01 0.000000000000000000e+00 0.000000000000000000e+00 0.000000000000000000e+00 1.630900000000000105e+01 0.000000000000000000e+00 0.000000000000000000e+00 0.000000000000000000e+00 1.630900000000000105e+01
1.655600000000000094e+01 0.000000000000000000e+00 0.000000000000000000e+00 0.000000000000000000e+00 1.655600000000000094e+01 0.000000000000000000e+00 0.000000000000000000e+00 0.000000000000000000e+00 1.655600000000000094e+01
1.575999999999999979e+01 0.000000000000000000e+00 0.000000000000000000e+00 0.000000000000000000e+00 1.575999999999999979e+01 0.000000000000000000e+00 0.000000000000000000e+00 0.000000000000000000e+00 1.575999999999999979e+01
1.573399999999999999e+01 0.000000000000000000e+00 0.000000000000000000e+00 0.000000000000000000e+00 1.573399999999999999e+01 0.000000000000000000e+00 0.000000000000000000e+00 0.000000000000000000e+00 1.573399999999999999e+01
1.787199999999999989e+01 0.000000000000000000e+00 0.000000000000000000e+00 0.000000000000000000e+00 1.787199999999999989e+01 0.000000000000000000e+00 0.000000000000000000e+00 0.000000000000000000e+00 1.787199999999999989e+01
1.541300000000000026e+01 0.000000000000000000e+00 0.000000000000000000e+00 0.000000000000000000e+00 1.541300000000000026e+01 0.000000000000000000e+00 0.000000000000000000e+00 0.000000000000000000e+00 1.541300000000000026e+01
1.715599999999999881e+01 0.000000000000000000e+00 0.000000000000000000e+00 0.000000000000000000e+00 1.715599999999999881e+01 0.000000000000000000e+00 0.000000000000000000e+00 0.000000000000000000e+00 1.715599999999999881e+01
1.581799999999999962e+01 0.000000000000000000e+00 0.000000000000000000e+00 0.000000000000000000e+00 1.581799999999999962e+01 0.000000000000000000e+00 0.000000000000000000e+00 0.000000000000000000e+00 1.581799999999999962e+01
1.556900000000000084e+01 0.000000000000000000e+00 0.000000000000000000e+00 0.000000000000000000e+00 1.556900000000000084e+01 0.000000000000000000e+00 0.000000000000000000e+00 0.000000000000000000e+00 1.556900000000000084e+01
1.597499999999999964e+01 0.000000000000000000e+00 0.000000000000000000e+00 0.000000000000000000e+00 1.597499999999999964e+01 0.000000000000000000e+00 0.000000000000000000e+00 0.000000000000000000e+00 1.597499999999999964e+01
1.591600000000000037e+01 0.000000000000000000e+00 0.000000000000000000e+00 0.000000000000000000e+00 1.591600000000000037e+01 0.000000000000000000e+00 0.000000000000000000e+00 0.000000000000000000e+00 1.591600000000000037e+01
1.579700000000000060e+01 0.000000000000000000e+00 0.000000000000000000e+00 0.000000000000000000e+00 1.579700000000000060e+01 0.000000000000000000e+00 0.000000000000000000e+00 0.000000000000000000e+00 1.579700000000000060e+01
1.687900000000000134e+01 0.000000000000000000e+00 0.000000000000000000e+00 0.000000000000000000e+00 1.687900000000000134e+01 0.000000000000000000e+00 0.000000000000000000e+00 0.000000000000000000e+00 1.687900000000000134e+01
1.580599999999999916e+01 0.000000000000000000e+00 0.000000000000000000e+00 0.000000000000000000e+00 1.580599999999999916e+01 0.000000000000000000e+00 0.000000000000000000e+00 0.000000000000000000e+00 1.580599999999999916e+01
1.722599999999999909e+01 0.000000000000000000e+00 0.000000000000000000e+00 0.000000000000000000e+00 1.722599999999999909e+01 0.000000000000000000e+00 0.000000000000000000e+00 0.000000000000000000e+00 1.722599999999999909e+01
1.573499999999999943e+01 0.000000000000000000e+00 0.000000000000000000e+00 0.000000000000000000e+00 1.573499999999999943e+01 0.000000000000000000e+00 0.000000000000000000e+00 0.000000000000000000e+00 1.573499999999999943e+01
1.549799999999999933e+01 0.000000000000000000e+00 0.000000000000000000e+00 0.000000000000000000e+00 1.549799999999999933e+01 0.000000000000000000e+00 0.000000000000000000e+00 0.000000000000000000e+00 1.549799999999999933e+01
1.716600000000000037e+01 0.000000000000000000e+00 0.000000000000000000e+00 0.000000000000000000e+00 1.716600000000000037e+01 0.000000000000000000e+00 0.000000000000000000e+00 0.000000000000000000e+00 1.716600000000000037e+01
1.596299999999999919e+01 0.000000000000000000e+00 0.000000000000000000e+00 0.000000000000000000e+00 1.596299999999999919e+01 0.000000000000000000e+00 0.000000000000000000e+00 0.000000000000000000e+00 1.596299999999999919e+01
1.591000000000000014e+01 0.000000000000000000e+00 0.000000000000000000e+00 0.000000000000000000e+00 1.591000000000000014e+01 0.000000000000000000e+00 0.000000000000000000e+00 0.000000000000000000e+00 1.591000000000000014e+01
1.501299999999999990e+01 0.000000000000000000e+00 0.000000000000000000e+00 0.000000000000000000e+00 1.501299999999999990e+01 0.000000000000000000e+00 0.000000000000000000e+00 0.000000000000000000e+00 1.501299999999999990e+01
1.616700000000000159e+01 0.000000000000000000e+00 0.000000000000000000e+00 0.000000000000000000e+00 1.616700000000000159e+01 0.000000000000000000e+00 0.000000000000000000e+00 0.000000000000000000e+00 1.616700000000000159e+01
1.557000000000000028e+01 0.000000000000000000e+00 0.000000000000000000e+00 0.000000000000000000e+00 1.557000000000000028e+01 0.000000000000000000e+00 0.000000000000000000e+00 0.000000000000000000e+00 1.557000000000000028e+01
1.580400000000000027e+01 0.000000000000000000e+00 0.000000000000000000e+00 0.000000000000000000e+00 1.580400000000000027e+01 0.000000000000000000e+00 0.000000000000000000e+00 0.000000000000000000e+00 1.580400000000000027e+01
1.663899999999999935e+01 0.000000000000000000e+00 0.000000000000000000e+00 0.000000000000000000e+00 1.663899999999999935e+01 0.000000000000000000e+00 0.000000000000000000e+00 0.000000000000000000e+00 1.663899999999999935e+01
1.614799999999999969e+01 0.000000000000000000e+00 0.000000000000000000e+00 0.000000000000000000e+00 1.614799999999999969e+01 0.000000000000000000e+00 0.000000000000000000e+00 0.000000000000000000e+00 1.614799999999999969e+01
1.571199999999999974e+01 0.000000000000000000e+00 0.000000000000000000e+00 0.000000000000000000e+00 1.571199999999999974e+01 0.000000000000000000e+00 0.000000000000000000e+00 0.000000000000000000e+00 1.571199999999999974e+01
1.590499999999999936e+01 0.000000000000000000e+00 0.000000000000000000e+00 0.000000000000000000e+00 1.590499999999999936e+01 0.000000000000000000e+00 0.000000000000000000e+00 0.000000000000000000e+00 1.590499999999999936e+01
1.563199999999999967e+01 0.000000000000000000e+00 0.000000000000000000e+00 0.000000000000000000e+00 1.563199999999999967e+01 0.000000000000000000e+00 0.000000000000000000e+00 0.000000000000000000e+00 1.563199999999999967e+01
1.730499999999999972e+01 0.000000000000000000e+00 0.000000000000000000e+00 0.000000000000000000e+00 1.730499999999999972e+01 0.000000000000000000e+00 0.000000000000000000e+00 0.000000000000000000e+00 1.730499999999999972e+01
1.557399999999999984e+01 0.000000000000000000e+00 0.000000000000000000e+00 0.000000000000000000e+00 1.557399999999999984e+01 0.000000000000000000e+00 0.000000000000000000e+00 0.000000000000000000e+00 1.557399999999999984e+01
1.592399999999999949e+01 0.000000000000000000e+00 0.000000000000000000e+00 0.000000000000000000e+00 1.592399999999999949e+01 0.000000000000000000e+00 0.000000000000000000e+00 0.000000000000000000e+00 1.592399999999999949e+01
1.564600000000000080e+01 0.000000000000000000e+00 0.000000000000000000e+00 0.000000000000000000e+00 1.564600000000000080e+01 0.000000000000000000e+00 0.000000000000000000e+00 0.000000000000000000e+00 1.564600000000000080e+01
1.560699999999999932e+01 0.000000000000000000e+00 0.000000000000000000e+00 0.000000000000000000e+00 1.560699999999999932e+01 0.000000000000000000e+00 0.000000000000000000e+00 0.000000000000000000e+00 1.560699999999999932e+01
1.560699999999999932e+01 0.000000000000000000e+00 0.000000000000000000e+00 0.000000000000000000e+00 1.560699999999999932e+01 0.000000000000000000e+00 0.000000000000000000e+00 0.000000000000000000e+00 1.560699999999999932e+01
1.521899999999999942e+01 0.000000000000000000e+00 0.000000000000000000e+00 0.000000000000000000e+00 1.521899999999999942e+01 0.000000000000000000e+00 0.000000000000000000e+00 0.000000000000000000e+00 1.521899999999999942e+01
1.762399999999999878e+01 0.000000000000000000e+00 0.000000000000000000e+00 0.000000000000000000e+00 1.762399999999999878e+01 0.000000000000000000e+00 0.000000000000000000e+00 0.000000000000000000e+00 1.762399999999999878e+01
1.587800000000000011e+01 0.000000000000000000e+00 0.000000000000000000e+00 0.000000000000000000e+00 1.587800000000000011e+01 0.000000000000000000e+00 0.000000000000000000e+00 0.000000000000000000e+00 1.587800000000000011e+01
1.581799999999999962e+01 0.000000000000000000e+00 0.000000000000000000e+00 0.000000000000000000e+00 1.581799999999999962e+01 0.000000000000000000e+00 0.000000000000000000e+00 0.000000000000000000e+00 1.581799999999999962e+01
1.642200000000000060e+01 0.000000000000000000e+00 0.000000000000000000e+00 0.000000000000000000e+00 1.642200000000000060e+01 0.000000000000000000e+00 0.000000000000000000e+00 0.000000000000000000e+00 1.642200000000000060e+01
1.563899999999999935e+01 0.000000000000000000e+00 0.000000000000000000e+00 0.000000000000000000e+00 1.563899999999999935e+01 0.000000000000000000e+00 0.000000000000000000e+00 0.000000000000000000e+00 1.563899999999999935e+01
1.634100000000000108e+01 0.000000000000000000e+00 0.000000000000000000e+00 0.000000000000000000e+00 1.634100000000000108e+01 0.000000000000000000e+00 0.000000000000000000e+00 0.000000000000000000e+00 1.634100000000000108e+01
1.561999999999999922e+01 0.000000000000000000e+00 0.000000000000000000e+00 0.000000000000000000e+00 1.561999999999999922e+01 0.000000000000000000e+00 0.000000000000000000e+00 0.000000000000000000e+00 1.561999999999999922e+01
1.690500000000000114e+01 0.000000000000000000e+00 0.000000000000000000e+00 0.000000000000000000e+00 1.690500000000000114e+01 0.000000000000000000e+00 0.000000000000000000e+00 0.000000000000000000e+00 1.690500000000000114e+01
1.567200000000000060e+01 0.000000000000000000e+00 0.000000000000000000e+00 0.000000000000000000e+00 1.567200000000000060e+01 0.000000000000000000e+00 0.000000000000000000e+00 0.000000000000000000e+00 1.567200000000000060e+01
1.741499999999999915e+01 0.000000000000000000e+00 0.000000000000000000e+00 0.000000000000000000e+00 1.741499999999999915e+01 0.000000000000000000e+00 0.000000000000000000e+00 0.000000000000000000e+00 1.741499999999999915e+01
1.644099999999999895e+01 0.000000000000000000e+00 0.000000000000000000e+00 0.000000000000000000e+00 1.644099999999999895e+01 0.000000000000000000e+00 0.000000000000000000e+00 0.000000000000000000e+00 1.644099999999999895e+01
1.577999999999999936e+01 0.000000000000000000e+00 0.000000000000000000e+00 0.000000000000000000e+00 1.577999999999999936e+01 0.000000000000000000e+00 0.000000000000000000e+00 0.000000000000000000e+00 1.577999999999999936e+01
1.642899999999999849e+01 0.000000000000000000e+00 0.000000000000000000e+00 0.000000000000000000e+00 1.642899999999999849e+01 0.000000000000000000e+00 0.000000000000000000e+00 0.000000000000000000e+00 1.642899999999999849e+01
1.611400000000000077e+01 0.000000000000000000e+00 0.000000000000000000e+00 0.000000000000000000e+00 1.611400000000000077e+01 0.000000000000000000e+00 0.000000000000000000e+00 0.000000000000000000e+00 1.611400000000000077e+01
1.587899999999999956e+01 0.000000000000000000e+00 0.000000000000000000e+00 0.000000000000000000e+00 1.587899999999999956e+01 0.000000000000000000e+00 0.000000000000000000e+00 0.000000000000000000e+00 1.587899999999999956e+01
1.568299999999999983e+01 0.000000000000000000e+00 0.000000000000000000e+00 0.000000000000000000e+00 1.568299999999999983e+01 0.000000000000000000e+00 0.000000000000000000e+00 0.000000000000000000e+00 1.568299999999999983e+01
1.605900000000000105e+01 0.000000000000000000e+00 0.000000000000000000e+00 0.000000000000000000e+00 1.605900000000000105e+01 0.000000000000000000e+00 0.000000000000000000e+00 0.000000000000000000e+00 1.605900000000000105e+01
1.560899999999999999e+01 0.000000000000000000e+00 0.000000000000000000e+00 0.000000000000000000e+00 1.560899999999999999e+01 0.000000000000000000e+00 0.000000000000000000e+00 0.000000000000000000e+00 1.560899999999999999e+01
1.560599999999999987e+01 0.000000000000000000e+00 0.000000000000000000e+00 0.000000000000000000e+00 1.560599999999999987e+01 0.000000000000000000e+00 0.000000000000000000e+00 0.000000000000000000e+00 1.560599999999999987e+01
1.565000000000000036e+01 0.000000000000000000e+00 0.000000000000000000e+00 0.000000000000000000e+00 1.565000000000000036e+01 0.000000000000000000e+00 0.000000000000000000e+00 0.000000000000000000e+00 1.565000000000000036e+01
1.609600000000000009e+01 0.000000000000000000e+00 0.000000000000000000e+00 0.000000000000000000e+00 1.609600000000000009e+01 0.000000000000000000e+00 0.000000000000000000e+00 0.000000000000000000e+00 1.609600000000000009e+01
1.889999999999999858e+01 0.000000000000000000e+00 0.000000000000000000e+00 0.000000000000000000e+00 1.889999999999999858e+01 0.000000000000000000e+00 0.000000000000000000e+00 0.000000000000000000e+00 1.889999999999999858e+01
1.589100000000000001e+01 0.000000000000000000e+00 0.000000000000000000e+00 0.000000000000000000e+00 1.589100000000000001e+01 0.000000000000000000e+00 0.000000000000000000e+00 0.000000000000000000e+00 1.589100000000000001e+01
1.606800000000000139e+01 0.000000000000000000e+00 0.000000000000000000e+00 0.000000000000000000e+00 1.606800000000000139e+01 0.000000000000000000e+00 0.000000000000000000e+00 0.000000000000000000e+00 1.606800000000000139e+01
1.534200000000000053e+01 0.000000000000000000e+00 0.000000000000000000e+00 0.000000000000000000e+00 1.534200000000000053e+01 0.000000000000000000e+00 0.000000000000000000e+00 0.000000000000000000e+00 1.534200000000000053e+01
1.548900000000000077e+01 0.000000000000000000e+00 0.000000000000000000e+00 0.000000000000000000e+00 1.548900000000000077e+01 0.000000000000000000e+00 0.000000000000000000e+00 0.000000000000000000e+00 1.548900000000000077e+01
1.675100000000000122e+01 0.000000000000000000e+00 0.000000000000000000e+00 0.000000000000000000e+00 1.675100000000000122e+01 0.000000000000000000e+00 0.000000000000000000e+00 0.000000000000000000e+00 1.675100000000000122e+01
1.530400000000000027e+01 0.000000000000000000e+00 0.000000000000000000e+00 0.000000000000000000e+00 1.530400000000000027e+01 0.000000000000000000e+00 0.000000000000000000e+00 0.000000000000000000e+00 1.530400000000000027e+01
1.832900000000000063e+01 0.000000000000000000e+00 0.000000000000000000e+00 0.000000000000000000e+00 1.832900000000000063e+01 0.000000000000000000e+00 0.000000000000000000e+00 0.000000000000000000e+00 1.832900000000000063e+01
1.646600000000000108e+01 0.000000000000000000e+00 0.000000000000000000e+00 0.000000000000000000e+00 1.646600000000000108e+01 0.000000000000000000e+00 0.000000000000000000e+00 0.000000000000000000e+00 1.646600000000000108e+01
1.589600000000000080e+01 0.000000000000000000e+00 0.000000000000000000e+00 0.000000000000000000e+00 1.589600000000000080e+01 0.000000000000000000e+00 0.000000000000000000e+00 0.000000000000000000e+00 1.589600000000000080e+01
1.718700000000000117e+01 0.000000000000000000e+00 0.000000000000000000e+00 0.000000000000000000e+00 1.718700000000000117e+01 0.000000000000000000e+00 0.000000000000000000e+00 0.000000000000000000e+00 1.718700000000000117e+01
1.722200000000000131e+01 0.000000000000000000e+00 0.000000000000000000e+00 0.000000000000000000e+00 1.722200000000000131e+01 0.000000000000000000e+00 0.000000000000000000e+00 0.000000000000000000e+00 1.722200000000000131e+01
1.548199999999999932e+01 0.000000000000000000e+00 0.000000000000000000e+00 0.000000000000000000e+00 1.548199999999999932e+01 0.000000000000000000e+00 0.000000000000000000e+00 0.000000000000000000e+00 1.548199999999999932e+01
1.552699999999999925e+01 0.000000000000000000e+00 0.000000000000000000e+00 0.000000000000000000e+00 1.552699999999999925e+01 0.000000000000000000e+00 0.000000000000000000e+00 0.000000000000000000e+00 1.552699999999999925e+01
1.621399999999999864e+01 0.000000000000000000e+00 0.000000000000000000e+00 0.000000000000000000e+00 1.621399999999999864e+01 0.000000000000000000e+00 0.000000000000000000e+00 0.000000000000000000e+00 1.621399999999999864e+01
1.703999999999999915e+01 0.000000000000000000e+00 0.000000000000000000e+00 0.000000000000000000e+00 1.703999999999999915e+01 0.000000000000000000e+00 0.000000000000000000e+00 0.000000000000000000e+00 1.703999999999999915e+01
1.607400000000000162e+01 0.000000000000000000e+00 0.000000000000000000e+00 0.000000000000000000e+00 1.607400000000000162e+01 0.000000000000000000e+00 0.000000000000000000e+00 0.000000000000000000e+00 1.607400000000000162e+01
1.684199999999999875e+01 0.000000000000000000e+00 0.000000000000000000e+00 0.000000000000000000e+00 1.684199999999999875e+01 0.000000000000000000e+00 0.000000000000000000e+00 0.000000000000000000e+00 1.684199999999999875e+01
1.855699999999999861e+01 0.000000000000000000e+00 0.000000000000000000e+00 0.000000000000000000e+00 1.855699999999999861e+01 0.000000000000000000e+00 0.000000000000000000e+00 0.000000000000000000e+00 1.855699999999999861e+01