6.183613000000000248e+00 1.026242300000000007e+01 1.154192300000000060e+01 1.446912299999999973e+01 8.875742999999999938e+00 1.226442300000000074e+01 3.329593000000000025e+00 1.359692300000000031e+01 2.724579999999999780e-01 7.912092999999999599e+00 1.337712299999999921e+01 3.599873000000000101e+00 1.450752300000000083e+01 1.319562299999999944e+01 7.143163000000000373e+00 2.517183000000000170e+00 1.488352300000000028e+01 1.885493000000000086e+00 1.432692300000000074e+01 3.333473000000000130e+00 5.036922999999999817e+00 1.459242300000000014e+01 5.865883000000000180e+00 7.570632999999999946e+00 1.087982300000000002e+01 7.154462999999999795e+00 1.265912299999999924e+01 6.388722999999999708e+00 1.086002299999999998e+01 2.703323000000000143e+00 1.229152299999999975e+01 1.028642299999999921e+01 3.720199999999999896e-02 1.059062300000000079e+01 4.279202999999999868e+00 6.432762999999999565e+00 1.067792299999999983e+01 1.336133000000000015e+00 1.152282300000000070e+01 1.694042999999999966e+00 9.655692999999999415e+00 1.119742300000000057e+01 8.783362999999999587e+00 3.892229999999999857e-01 1.249332300000000018e+01 2.849382999999999999e+00 4.565852999999999717e+00 3.171943000000000179e+00 3.616343000000000085e+00 6.811062999999999867e+00 1.005732300000000023e+01 2.650390000000000246e-01 1.298382299999999923e+01 1.181502300000000005e+01 1.016512299999999946e+01 9.215073000000000292e+00 1.414152299999999940e+01 1.373812299999999986e+01 2.285533000000000037e+00 1.013262300000000060e+01 1.139302299999999946e+01 1.525012300000000032e+01 6.326423000000000130e+00 1.495962300000000056e+01 7.165299999999999447e-02 1.490812299999999979e+01 3.020903000000000116e+00 1.389753000000000016e+00 1.082622300000000060e+01 7.403222999999999665e+00 2.352492999999999945e+00 5.592742999999999576e+00 2.388152999999999970e+00 4.581930000000000169e-01 7.525393000000000221e+00 1.200952299999999973e+01 5.492212999999999568e+00 8.455092999999999748e+00 6.364079999999999737e-01 4.916872999999999827e+00 3.644912999999999847e+00 5.545593000000000217e+00 5.783612999999999893e+00 1.125602300000000078e+01 4.935802999999999940e+00 3.864463000000000203e+00 3.097513000000000183e+00 4.673643000000000214e+00 3.280663000000000107e+00 1.507522299999999937e+01 8.000673000000000812e+00 5.203813000000000244e+00 5.636623000000000161e+00 3.497832999999999970e+00 1.130082299999999940e+01 1.431610000000000105e-01 1.840162999999999993e+00 9.194413000000000835e+00 1.303272300000000072e+01 5.178679999999999950e-01 8.247222999999999971e+00 7.740363000000000326e+00 7.590593000000000146e+00 1.204152299999999975e+01 9.310102999999999795e+00 4.897043000000000035e+00 1.270142300000000013e+01 9.647472999999999743e+00 1.120832300000000004e+01 1.073802300000000010e+01 7.290713000000000221e+00 8.394232999999999834e+00 4.500999999999999793e-03 1.474782300000000035e+01 1.000762300000000060e+01 3.430489999999999928e-01 8.061082999999999998e+00 1.482302299999999917e+01 1.244092299999999973e+01 9.661312999999999818e+00 1.404482299999999917e+01 6.556883000000000017e+00 1.302310000000000134e-01 9.088082999999999245e+00 2.532683000000000018e+00 7.426182999999999979e+00 8.528003000000000000e+00 2.295872999999999831e+00 3.061423000000000005e+00 2.537043000000000159e+00 1.305792300000000061e+01 3.788063000000000180e+00 6.409823000000000270e+00 5.822022999999999726e+00 1.348212299999999964e+01 1.332953000000000054e+00 1.221072299999999977e+01 3.543720000000000203e-01 5.580693000000000126e+00 8.409482999999999819e+00 1.099882299999999979e+01 1.217972299999999919e+01 1.292632300000000001e+01 1.152992999999999935e+00 1.069632299999999958e+01 6.193773000000000195e+00 3.985933000000000170e+00 1.562262999999999957e+00 1.383612300000000062e+01 5.983062999999999576e+00 2.733732999999999969e+00 1.025202299999999944e+01 6.400192999999999799e+00 7.482573000000000363e+00 4.241563000000000194e+00 1.473202299999999987e+01 2.698679999999999968e-01 4.850599999999999912e-01 7.103782999999999959e+00 1.046752299999999991e+01 5.401102999999999987e+00 1.061312299999999986e+01 8.586733000000000615e+00 1.219762300000000010e+01 6.084272999999999598e+00 1.480102300000000071e+01 1.511612299999999998e+01 1.292932300000000012e+01 8.483453000000000799e+00 1.125062299999999915e+01 3.764813000000000187e+00 8.491543000000000063e+00 1.377532300000000021e+01 8.085212999999999539e+00 4.228873000000000104e+00 8.957133000000000678e+00 5.905912999999999968e+00 2.603613000000000177e+00 3.106643000000000043e+00 1.114222999999999963e+00 1.228782299999999950e+01 4.866122999999999976e+00 4.864093000000000444e+00 1.309012300000000018e+01 1.018762300000000032e+01 1.067592299999999916e+01 8.316463000000000605e+00 8.556882999999999129e+00 2.424270000000000036e-01 1.040613000000000010e+00 1.270593000000000083e+00 1.425613000000000019e+00 1.134402299999999997e+01 1.770472999999999963e+00 9.929923000000000499e+00 6.349033000000000371e+00 1.211642299999999928e+01 1.328622299999999967e+01 4.757793000000000383e+00 6.903872999999999927e+00 7.625232999999999706e+00 8.472132999999999470e+00 8.242800000000000127e-02 2.102282999999999902e+00 7.144763000000000197e+00 5.662912999999999641e+00 7.945752999999999844e+00 1.468832300000000046e+01 1.099102300000000021e+01 1.327322299999999977e+01 7.513363000000000014e+00 7.272262999999999700e+00 2.346722999999999892e+00 4.368352999999999930e+00 1.482402300000000039e+01 1.136062300000000036e+01 4.239023000000000430e+00 1.270852299999999957e+01 5.491292999999999758e+00 9.127553000000000694e+00 4.504213000000000022e+00 3.242153000000000063e+00 9.694822999999999524e+00 1.061042300000000083e+01 9.452662999999999371e+00 3.831062999999999885e+00 6.800129999999999786e-01 5.568743000000000443e+00 3.073412999999999951e+00 1.398292299999999955e+01 8.229193000000000424e+00 8.880122999999999323e+00 4.317582999999999949e+00 8.996802999999999884e+00 4.285483000000000153e+00 3.621612999999999971e+00 1.065372299999999939e+01 6.437352999999999881e+00 1.072842299999999938e+01 2.370230000000000115e-01 5.397002999999999773e+00 2.444352999999999998e+00 4.506013000000000268e+00 1.426052299999999917e+01 6.429413000000000267e+00 2.313092999999999844e+00 1.073292299999999955e+01 1.040732299999999988e+01 1.190512299999999968e+01 5.665512999999999799e+00 5.691943000000000197e+00 1.933143000000000056e+00 6.826983000000000246e+00 2.082463000000000175e+00 1.522562300000000057e+01 1.254222299999999990e+01 1.267812299999999937e+01 6.701572999999999780e+00 1.894892999999999939e+00 9.459872999999999976e+00 2.167902999999999913e+00 1.514122300000000010e+01 1.060942299999999960e+01 3.664893000000000178e+00 6.365363000000000326e+00 1.467202299999999937e+01 1.293072300000000041e+01 5.152413000000000132e+00 7.272553000000000267e+00 1.487472299999999947e+01 3.795012999999999970e+00 9.869923000000000002e+00 3.570053000000000143e+00 3.296943000000000179e+00 8.951962999999999226e+00 1.500272299999999959e+01 1.022652300000000025e+01 1.002662300000000073e+01 5.535743000000000080e+00 1.448042300000000004e+01 1.292882299999999951e+01 1.386969999999999870e-01 1.766823000000000032e+00 9.812222999999999473e+00 8.710782999999999276e+00 6.449593000000000131e+00 1.294092299999999973e+01 5.584832999999999714e+00 9.649772999999999712e+00 1.389352300000000007e+01 4.366670000000000273e-01 1.306492300000000029e+01 1.149982299999999924e+01 2.335932999999999815e+00 8.786493000000000109e+00 7.273992999999999931e+00 4.683112999999999637e+00 1.306862300000000054e+01 7.639829999999999677e-01 1.152272299999999916e+01 1.948442999999999925e+00 3.348843000000000014e+00 1.027162299999999995e+01 1.515712300000000035e+01 4.195312999999999626e+00 9.042742999999999753e+00 3.445150000000000157e-01 9.478913000000000366e+00 5.559732999999999592e+00 1.341832299999999911e+01 7.130372999999999628e+00 1.306652300000000011e+01 1.362852299999999950e+01 1.260402999999999940e+00 6.341982999999999926e+00 2.589640000000000275e-01 7.992062999999999917e+00 1.409423000000000092e+00 9.359512999999999749e+00 9.213329999999999576e-01 1.141732299999999967e+01 1.114362299999999983e+01 1.025042299999999962e+01 4.667893000000000292e+00 1.103792299999999926e+01 4.263982999999999635e+00 5.202532999999999852e+00 3.101713000000000164e+00 9.947822999999999638e+00 2.575523000000000007e+00 6.430242999999999931e+00 1.127642299999999942e+01 1.430262300000000053e+01 9.158343000000000345e+00 9.460832999999999160e+00 1.502662300000000073e+01 1.325393000000000043e+00 8.390202999999999633e+00 8.838732999999999507e+00 1.148099999999999954e-01 1.222592299999999987e+01 7.994830000000000547e-01 1.360152300000000025e+01 1.496892300000000020e+01 1.209052299999999924e+01 1.003042300000000075e+01 6.100023000000000195e+00 1.170122300000000060e+01 1.503952300000000086e+01 7.715783000000000058e+00 2.628903000000000212e+00 6.902883000000000102e+00 1.363522299999999987e+01 4.703732999999999720e+00 6.965512999999999622e+00 9.435112999999999417e+00 2.788039999999999963e-01 1.354812300000000036e+01 4.355793000000000248e+00 5.179083000000000325e+00 1.174072299999999913e+01 5.484940000000000371e-01 1.119162299999999988e+01 1.061682300000000012e+01 1.213592999999999922e+00 8.820793000000000106e+00 6.040892999999999624e+00 1.208542300000000047e+01 9.051512999999999920e+00 1.382093000000000016e+00 1.383413000000000004e+00 7.239633000000000429e+00 6.165153000000000105e+00 3.172743000000000091e+00 5.598112999999999673e+00 1.166952299999999987e+01 5.800053000000000125e+00 9.774822999999999595e+00 6.131183000000000050e+00 1.152372300000000038e+01 1.188902299999999990e+01 1.237452299999999994e+01 9.237330000000000263e-01 6.225443000000000282e+00 1.343442300000000067e+01 6.294163000000000174e+00 1.430862300000000076e+01 1.132122299999999981e+01 4.470443000000000389e+00 7.567582999999999949e+00 1.391332300000000011e+01 1.161262299999999925e+01 1.440732299999999988e+01 4.088833000000000162e+00 1.009642299999999970e+01 1.501412299999999966e+01 1.348993000000000109e+00 2.493253000000000164e+00 1.157982999999999985e+00 1.518972300000000075e+01 9.223782999999999177e+00 6.858382999999999896e+00 1.745583000000000107e+00 5.489112999999999687e+00 3.527803000000000022e+00 1.091742299999999943e+01 2.549903000000000031e+00 1.102642299999999942e+01 1.222902299999999975e+01 6.943412999999999613e+00 1.212452299999999994e+01 9.260422999999999405e+00 3.368202999999999836e+00 2.566943000000000197e+00 3.455050000000000066e-01 1.305062299999999986e+01 1.040322300000000055e+01 5.558672999999999753e+00 6.658773000000000053e+00 9.622429999999999595e-01 1.556143000000000054e+00 1.293152300000000032e+01 4.701603000000000421e+00 4.268792999999999616e+00 7.987932999999999950e+00 6.866233000000000253e+00 1.097812300000000008e+01 1.317152300000000054e+01 6.047839999999999883e-01 9.683730000000000393e-01 3.933142999999999834e+00 9.560722999999999416e+00 2.032023000000000135e+00 5.862899999999999778e-01 2.369622999999999813e+00 4.846293000000000184e+00 4.630152999999999963e+00 2.116903000000000201e+00 2.571912999999999894e+00 4.169642999999999766e+00 2.012722999999999818e+00 8.139502999999999489e+00 7.851912999999999698e+00 3.516472999999999960e+00 8.245613000000000525e+00 4.586562999999999946e+00 4.453203000000000245e+00 2.553682999999999925e+00 3.416049999999999920e-01 5.055253000000000441e+00 8.387513000000000218e+00 1.076142300000000063e+01 8.788472999999999757e+00 8.251792999999999267e+00 6.713322999999999929e+00 5.664113000000000397e+00 7.552323000000000341e+00 5.573172999999999710e+00 1.468252299999999977e+01 8.933742999999999768e+00 1.251392300000000013e+01 3.147782999999999998e+00 2.093573000000000128e+00 1.038152299999999961e+01 1.239632300000000065e+01 6.582803000000000182e+00 1.158932300000000026e+01 1.502302999999999944e+00 1.486852299999999971e+01 1.270562299999999922e+01 8.361313000000000883e+00 1.493352299999999921e+01 5.233793000000000362e+00 2.868602999999999792e+00 3.072693000000000119e+00 4.042512999999999579e+00 9.991623000000000587e+00 1.710293000000000063e+00 8.429202999999999335e+00 1.191292299999999926e+01 6.646499999999999631e-02 6.945763000000000353e+00 4.519469999999999876e-01 7.350972999999999757e+00 1.421032300000000070e+01 2.519322999999999979e+00 1.091182300000000005e+01 1.053322299999999956e+01 8.747773000000000465e+00 4.145073000000000008e+00 8.866383000000000791e+00 4.564903000000000155e+00 8.576473000000000013e+00 2.856902999999999970e+00 8.590763000000000815e+00 1.016762300000000074e+01 7.318082999999999672e+00 4.568342999999999599e+00 1.977962999999999916e+00 1.022242299999999915e+01 1.003782299999999950e+01 1.345122300000000060e+01 1.342682300000000062e+01 1.205772999999999984e+00 6.766593000000000302e+00 9.153062999999999505e+00 1.159592300000000087e+01 3.423812999999999995e+00 1.488652300000000039e+01 8.176630000000000287e-01 1.435052300000000081e+01 8.353829999999999867e-01 7.434842999999999869e+00 3.874903000000000208e+00 4.460772999999999655e+00 4.207322999999999702e+00 4.802272999999999570e+00 1.382822299999999949e+01 1.048542300000000083e+01 1.361802300000000088e+01 1.136962300000000070e+01 9.907723000000000724e+00 1.320432300000000048e+01 6.040293000000000134e+00 1.464132999999999907e+00 1.530322299999999913e+01 1.178762299999999996e+01 1.239132299999999987e+01 4.685852999999999824e+00 9.338093000000000643e+00 1.074082300000000068e+01 4.866539999999999755e-01 1.432322300000000048e+01 6.545753000000000377e+00 3.860393000000000185e+00 6.639732999999999663e+00 8.672732999999999137e+00 1.507182300000000019e+01 1.407342300000000002e+01 1.494182299999999941e+01 1.181802300000000017e+01 9.075972999999999402e+00 1.492822299999999913e+01 1.409612300000000040e+01 3.574552999999999869e+00 9.696123000000000047e+00 1.302522300000000044e+01 1.018512300000000081e+01 1.188312999999999953e+00 3.698522999999999783e+00 1.289192300000000024e+01 8.834303000000000239e+00 1.436652300000000082e+01 2.024633000000000127e+00 5.520122999999999891e+00 4.001163000000000025e+00 1.261782299999999957e+01 4.248693000000000275e+00 6.053112999999999744e+00 7.110422999999999938e+00 1.391902299999999926e+01 1.324582299999999968e+01 6.295223000000000013e+00 7.846953000000000067e+00 5.159712999999999994e+00 1.299412300000000009e+01 6.241952999999999641e+00 5.565242999999999718e+00 2.089802999999999855e+00 1.509672300000000078e+01 3.347289999999999988e-01 3.872022999999999993e+00 4.698323000000000249e+00 8.287043000000000603e+00 1.981473000000000040e+00 4.482783000000000406e+00 1.000402300000000011e+01 5.379362999999999673e+00 3.294532999999999934e+00 4.943572999999999773e+00 4.392902999999999558e+00 1.448272300000000001e+01 8.107563000000000741e+00 1.355812999999999935e+00 2.239692999999999934e+00 1.807252999999999998e+00 9.403983000000000203e+00 5.745593000000000394e+00 1.409562299999999979e+01 1.627702999999999900e+00 1.117462300000000042e+01 2.135463000000000111e+00 8.527673000000000059e+00 1.419402299999999961e+01 5.916382999999999726e+00 6.238012999999999586e+00 7.688543000000000127e+00 9.867022999999999655e+00 4.441482999999999848e+00 9.962522999999999129e+00 2.050183000000000089e+00 1.324762300000000081e+01 1.504362300000000019e+01 7.210492999999999597e+00 1.193152300000000032e+01 6.538293000000000355e+00 1.521112300000000062e+01 9.628929999999999989e-01 6.107209999999999583e-01 8.144062999999999164e+00 5.474903000000000297e+00 8.892903000000000446e+00 4.987912999999999819e+00 1.065152299999999919e+01 3.059182999999999986e+00 7.304793000000000092e+00 1.073012300000000074e+01 3.634383000000000141e+00 1.193112299999999948e+01 1.037282300000000035e+01 1.151532300000000042e+01 3.699890000000000123e-01 1.419352300000000078e+01 1.256912299999999938e+01 7.696429999999999660e-01 9.988723000000000241e+00 2.833873000000000086e+00 1.798443000000000014e+00 8.515233000000000274e+00 1.190633000000000052e+00 8.991353000000000151e+00 1.140692300000000081e+01 5.043593000000000437e+00 9.279623000000000843e+00 5.130139999999999700e-01 1.382312300000000072e+01 1.277682300000000026e+01 1.800753000000000048e+00 9.254573000000000604e+00 1.207772300000000065e+01 1.386032299999999928e+01 7.175233000000000416e+00 7.206633000000000067e+00 4.291490000000000027e-01 1.272732300000000016e+01 1.495542299999999969e+01 7.813430000000000097e-01 1.384002300000000041e+01 4.038653000000000048e+00 7.836352999999999902e+00 1.491272299999999973e+01 5.726392999999999844e+00 6.882172999999999874e+00 1.059202299999999930e+01 3.434452999999999978e+00 9.220829999999999860e-01 6.975703000000000209e+00 1.196962300000000035e+01 1.230422300000000035e+01 2.429682999999999815e+00 6.427482999999999613e+00 5.348652999999999658e+00 1.238832299999999975e+01 4.963313000000000308e+00 1.512792299999999912e+01 1.253922299999999979e+01 9.554662999999999684e+00 1.096982299999999988e+01 1.093862299999999976e+01 7.653222999999999665e+00 6.505680000000000351e-01 2.933839999999999781e-01 4.290252999999999872e+00 2.104763000000000162e+00 1.111922299999999986e+01 8.414993000000000833e+00 1.400092300000000023e+01 1.483972299999999933e+01 9.067353000000000662e+00 1.304472299999999940e+01 7.122132999999999825e+00 8.303373000000000559e+00 1.752313000000000009e+00 6.572813000000000017e+00 2.430502999999999858e+00 1.524212299999999942e+01 8.812072999999999823e+00 7.128693000000000168e+00 5.955413000000000068e+00 2.499452999999999925e+00 5.636153000000000191e+00 2.666033000000000097e+00 3.116403000000000034e+00 4.328172999999999604e+00 1.254372299999999996e+01 5.245229999999999615e-01 2.156512999999999902e+00 1.059282299999999921e+01 7.564553000000000083e+00 1.493962299999999921e+01 9.649893000000000498e+00 1.333312300000000050e+01 3.190103000000000133e+00 1.525182299999999991e+01 1.089202300000000001e+01 1.012402299999999933e+01 1.038712300000000077e+01 1.334532300000000049e+01 1.486192300000000088e+01 1.011922299999999986e+01 4.877412999999999776e+00 2.531733000000000011e+00 1.349942300000000017e+01 2.538692999999999866e+00 5.118413000000000324e+00 4.669133000000000422e+00 1.051192299999999946e+01 1.520662300000000045e+01 6.947293000000000163e+00 7.437463000000000157e+00 8.043373000000000772e+00 7.484042999999999779e+00 1.009142999999999901e+00 1.005802300000000038e+01 9.970622999999999791e+00 6.906242999999999910e+00 1.778972999999999915e+00 2.071572999999999887e+00 1.072882300000000022e+01 7.843132999999999910e+00 3.022752999999999801e+00 1.503812300000000057e+01 6.482503000000000348e+00 1.339002299999999934e+01 1.343522300000000058e+01 1.456692299999999918e+01 7.720653000000000432e+00 1.299322300000000041e+01 5.056923000000000279e+00 1.088203000000000031e+00 5.213542999999999594e+00 9.670552999999999955e+00 3.438123000000000040e+00 6.645432999999999701e+00 1.035472299999999990e+01 8.214513000000000176e+00 1.297372299999999967e+01 1.413502300000000034e+01 1.143532300000000035e+01 3.187463000000000157e+00 1.393542300000000012e+01 1.288622299999999932e+01 6.009142999999999901e+00 2.147832999999999881e+00 1.117182299999999984e+01 5.965759999999999952e-01 3.446003000000000149e+00 2.707453000000000110e+00 2.479290000000000105e-01 2.652112999999999943e+00 1.350682300000000069e+01 6.924323000000000228e+00 1.015962299999999985e+01 2.152630000000000099e-01 6.465232999999999564e+00 1.196132300000000015e+01 6.088763000000000147e+00 4.046273000000000231e+00 1.516892299999999949e+01 4.705212999999999646e+00 7.785612999999999673e+00 7.116812999999999612e+00 4.941263000000000183e+00 6.513243000000000116e+00 4.033933000000000213e+00 1.050262299999999982e+01 6.052952999999999584e+00 1.388992299999999958e+01 9.227463000000000193e+00 1.102982300000000038e+01 8.153962999999999184e+00 1.331402300000000061e+01 9.403722999999999388e+00 1.209522300000000072e+01 1.132322300000000048e+01 6.394433000000000256e+00 3.045412999999999926e+00 6.415733000000000352e+00 1.110312300000000008e+01 8.776403000000000176e+00 1.510632299999999972e+01 8.359073000000000420e+00 9.628982999999999848e+00 1.494572299999999920e+01 1.465192999999999968e+00