-7.780153234992802027e+04
-7.780143793779243424e+04
-7.780310625502253242e+04
-7.779924413335195277e+04
-7.780009237830963684e+04
-7.780942524210666306e+04
-7.779591428219646332e+04
-7.779760768579579599e+04
-7.780095420108819962e+04
-7.780272680841150577e+04
-7.779206053800648078e+04
-7.779971555119991535e+04
-7.779584982576839684e+04
-7.779838041866486310e+04
-7.779863524070533458e+04
-7.780510903724218952e+04
-7.780460219443321694e+04
-7.779755559976134100e+04
-7.780543139302016061e+04
-7.779563284843591100e+04
-7.780246518327154627e+04
-7.779547523151278438e+04
-7.781022145184937108e+04
-7.780534142130200053e+04
-7.780387860147755418e+04
-7.779871754895299091e+04
-7.779363750549532415e+04
-7.780951805582291854e+04
-7.779680052473901014e+04
-7.779884067087303265e+04
-7.779336230409593554e+04
-7.777821455640498607e+04
-7.779849572504515527e+04
-7.781177567629709665e+04
-7.779390516628226032e+04
-7.779521757514734054e+04
-7.779532325254117313e+04
-7.780012273171867128e+04
-7.780045246905776730e+04
-7.780937793183645408e+04
-7.779999170356763352e+04
-7.779821138696330308e+04
-7.780192126185641973e+04
-7.778623903288360452e+04
-7.781639992767829972e+04
-7.780682799299535691e+04
-7.779657117017547716e+04
-7.780102985982361133e+04
-7.780534571132660494e+04
-7.779700909854534257e+04
-7.780550038657693949e+04
-7.780106240147474455e+04
-7.778950428098283010e+04
-7.780472104697099712e+04
-7.780249018432300363e+04
-7.780032191971222346e+04
-7.780434430035181867e+04
-7.780133538753628090e+04
-7.779722033517195086e+04
-7.779867241018066125e+04
-7.780406181871867739e+04
-7.778362747220898746e+04
-7.779517188008868834e+04
-7.778464922882059182e+04
-7.780343103193500428e+04
-7.780656728062055481e+04
-7.780700727964116959e+04
-7.780421725935579161e+04
-7.781175762699962070e+04
-7.779666267362228245e+04
-7.780350891033541120e+04
-7.779344678402575664e+04
-7.779812506365794980e+04
-7.781483963810199930e+04
-7.780034425042214571e+04
-7.779120452488727460e+04
-7.779627922383403347e+04
-7.779943579613155453e+04
-7.780242004111399001e+04
-7.779042597950466734e+04
-7.780758618893052335e+04
-7.778598845392007206e+04
-7.778893727274143021e+04
-7.780711938961889246e+04
-7.779918313299922738e+04
-7.780703110882702458e+04
-7.779036901153200597e+04
-7.779926256277892389e+04
-7.779751389881422801e+04
-7.780703163989316090e+04
-7.779043603991628333e+04
-7.780603597433840332e+04
-7.781264326927736693e+04
-7.778984073507516587e+04
-7.781557502432410547e+04
-7.780027942050829006e+04
-7.780696416928908729e+04
-7.780537658340668713e+04
-7.779837052996006969e+04
-7.779546287555621529e+04
-7.779958850108979095e+04
-7.781207123996340670e+04
-7.780143393206031760e+04
-7.779564626798876270e+04
-7.780190522312460234e+04
-7.779494788064059685e+04
-7.780870369638534612e+04
-7.780925208721992385e+04
-7.779868115802564716e+04
-7.779590710396289069e+04
-7.780145160256187955e+04
-7.780459618277331174e+04
-7.779785647402661562e+04
-7.780877030976077367e+04
-7.777775340721456450e+04
-7.778268393347870733e+04
-7.780233268630479870e+04
-7.780837817614355299e+04
-7.780990739281405695e+04
-7.780566622477716010e+04
-7.781004252709844150e+04
-7.778448319999256637e+04
-7.780381566445445060e+04
-7.781225979517215455e+04
-7.778786735408156528e+04
-7.778417004871091922e+04
-7.780074882257563877e+04
-7.779929622659727465e+04
-7.780365705392962263e+04
-7.779701793101534713e+04
-7.778960359131559380e+04
-7.779526088595380133e+04
-7.778218022096886125e+04
-7.779942233923067397e+04
-7.780688312840688741e+04
-7.780155657232998055e+04
-7.780853365188887983e+04
-7.780406655994543689e+04
-7.779985120116500184e+04
-7.780559120640470064e+04
-7.778486901267649955e+04
-7.779813382016027754e+04
-7.780356243506375176e+04
-7.780444832990744908e+04
-7.779236239007790573e+04
-7.779591526223107940e+04
-7.779603694050805643e+04
-7.780015094240651524e+04
-7.780324665910488693e+04
-7.779261321988148848e+04
-7.779424781749070098e+04
-7.782264441897468350e+04
-7.780043963241376332e+04
-7.780009003508972819e+04
-7.779180512635693594e+04
-7.780289205662583117e+04
-7.779554297429828148e+04
-7.779605084198045370e+04
-7.780565507240650186e+04
-7.780383840118789522e+04
-7.780057648247761244e+04
-7.779893625992159650e+04
-7.779125581237178994e+04
-7.780428092300136632e+04
-7.780450817861170799e+04
-7.780616741459409241e+04
-7.780492236434400547e+04
-7.778615689539570303e+04
-7.779932058457350649e+04
-7.779911877388229186e+04
-7.780998674118809868e+04
-7.778471640812771511e+04
-7.780363394816848449e+04
-7.780598106214376458e+04
-7.781079470116690209e+04
