-2.931412144195491010e+00 2.620935470966255565e+00 6.720967063290755883e-02 4.535344076103987598e-01 5.556879441968435307e-01 6.970739471643512264e-01 1.061032655893014431e-01 -1.456308432156109722e+00 5.823914238372995822e-01 -2.528136122674429220e+00 3.329867346890647894e+00 -5.162939611018376063e+00 3.400366487180015440e+00 -4.809804219052128960e-01 6.369898324216382024e-01 4.141716891324182193e+00 -5.877836446770021261e+00 -7.991344098086639036e-01 6.798493029100762364e+00 -5.527615143367659023e-01 -2.826444792076742152e-01 -5.063942360933626929e+00 -7.204385919635694635e-02 1.719835215117435201e+00 3.243759552239515287e+00 -6.344768874061376351e+00 -6.961810029626248841e+00 -6.389855742824619433e+00 1.314167553238049457e+00 -2.812893534634705706e+00 2.306919416832625025e+00 -5.620937454085718876e+00 1.743386007800918236e+00 3.749526439109667209e+00 -4.330992779953067862e-01 2.495014654792252706e+00 -2.479526842289057953e+00 -2.503966722519206933e-01 1.999418538648244092e-01 3.292763754103104734e+00 -2.852747179590882642e-01 3.524778065673588312e+00 -3.646356288249215538e+00 1.752418808173809239e+00 4.385159243170605237e+00 -1.577568352134058216e+00 3.982517769962200749e+00 6.608892667226103690e+00 -9.787285515731062313e-01 -2.339504038330348035e+00 -3.001562128646695360e+00 -6.551032556901740245e-01 1.808086281540980833e+00 1.494661066962652773e+00 3.049557429546398524e+00 1.768851758277218966e+00 -3.635063488010739086e+00 -1.000240973501827169e+00 5.079868803672394684e+00 -5.747427512546684270e+00 5.159921135657515201e+00 8.479807459251008650e-01 2.144578407147839094e+00 1.745351873440537771e+00 -2.756809028300301057e-01 5.995863461365733116e+00 1.506906203890790108e+00 -1.297283631602872633e+00 1.928028253929511271e+00 3.122722289813739671e+00 -5.285730880165768752e-01 -3.990501560158575267e-01 -8.353807967313766625e-01 4.007135570545817593e+00 2.470450847379487058e+00 1.910080923938923814e+00 3.481973308264945111e-01 -1.301431849786187644e+00 -5.304469081554142207e+00 -3.394080653651709412e+00 3.375767712761365669e+00 1.352221940053229821e+00 -4.900112168174727501e+00 2.589106239639759610e-01 -1.328193436362892221e+00 -2.230003830963560585e+00 5.813606170726691502e+00 -9.847089380206028864e-01 -2.007645041003106368e+00 -5.109779991882024142e-01 7.597199093087348976e-01 3.631238714631850328e+00 -4.091990723633226246e+00 1.115844980278054788e+00 8.224404334509590742e-01 1.908450330179249477e+00 1.947582009308058915e+00 -1.189504006613842924e+00 1.575775778861833620e+00 -4.226950510828217489e+00 -3.256187751727868562e+00 -2.485070141163006063e+00 -1.788370546649882709e+00 -1.800146200101961247e+00 -2.474316244191681946e+00 4.201182912815830395e-02 4.310712944981754724e+00 -1.821996979234676406e+00 -3.092917031063111555e+00 -2.126974576567993935e+00 2.898665543185217075e+00 -3.205147750212891666e-01 8.173547909775505937e-01 -2.282286189628765227e-01 -3.523386584527679055e+00 -1.053719923677206349e+00 -1.916095763171629551e+00 -4.466256471566844688e+00 -4.360445797541483870e+00 -4.889313019784024411e-02 -6.851671674402081136e-01 -1.582801575941124028e+00 2.687908085868097263e+00 -4.139595216820109336e+00 8.822036744926199381e-01 -3.191169689610802607e+00 -3.399538591893647155e-01 2.583136137605758151e-02 4.137091476354687991e+00 2.013390942822911089e+00 9.120732108275934058e-01 2.509304333123248965e-01 1.143850980887685997e+00 5.399532029256276289e+00 9.919983246177768166e+00 2.465786351638709295e+00 1.577401230414759992e+00 -6.446234383384988886e-01 1.559904357735265590e+00 -6.084510991929520385e-01 -2.325563001616841041e-01 -1.263660798562802112e+00 1.754596532731431902e+00 3.382643357403625206e+00 -2.035157389764965519e+00 4.846059861946987013e+00 1.314497682911247578e+00 5.845188061908626942e+00 -1.653239009749520427e+00 -2.791702500627712080e+00 -2.900932742140248877e+00 -7.875952978669764626e-01 2.302114538847636546e-02 6.340490043826672029e-01 3.609304117529148481e+00 7.122830520618241845e-01 2.915452791333538851e+00 2.126585311517198207e+00 9.604716607363114611e-02 2.712939834094898028e+00 3.601619603765486843e+00 -3.515207390474894833e-01 -3.937818623587729938e+00 -1.068910002409712900e+00 4.024021549063693470e+00 -1.502102868567826599e+00 -1.033912657506000032e+00 -3.866729672184407995e+00 1.816972014800889879e+00 4.581838366854056765e+00 5.352440728302807482e-01 1.379586707481431196e+00 1.078412800479337852e+00 3.822048523533553954e+00 6.419397206369094055e-01 8.757985417677688345e-01 -1.591754672109427116e+00 -3.861488735067220901e+00 9.051003784778036687e-01 2.245431479647808093e+00 -6.890443913279230559e-01 1.450829925087181893e+00 -1.478511452451037655e+00 -6.998466250426746971e-01 6.302390405592111833e+00 3.276614139591490019e-03 -4.729101912134107799e+00 3.684037865075192375e+00 1.985627140151092984e+00 -1.195195401042122629e+00 -2.064366666753542745e+00 -7.431378352096440487e-01 5.066902215137564447e+00 4.635555401201850723e-01 -5.417186767682923509e+00 -2.809002426788772544e-01 -2.950278900752555167e+00 -1.098937918712513451e+00 -1.567550304948320372e+00 1.215182644449495752e+00 2.509459113546352427e+00 -2.662805375188179280e+00 -4.034159923887325583e+00 -1.568868252537738650e+00 -1.613166306785894344e+00 -1.714877613592042715e+00 -4.857212794161927860e+00 -1.481714533034137915e+00 3.059525083106009902e+00 4.461996153276430732e+00 3.909441869871594477e+00 -9.675704771514181957e-01 7.153771178618747451e-01 9.522862960354299133e-01 -2.298415235313389537e+00 -2.894717871065059511e-01 -2.814500474243340822e+00 -2.534789109764516435e-01 -1.447982685211017806e+00 -3.967382712841894588e+00 -1.666273989634094344e+00 4.687058715544790033e+00 -1.618573851401704511e+00 2.653313375752724301e+00 1.530363922632140383e+00 -6.159196402732137088e+00 3.734028856413652564e-01 1.971902590341661599e+00 -1.121535860485659786e+00 -1.651052029219752360e+00 2.249111242796413723e+00 1.268793235117614326e+00 -3.301088472606847013e+00 2.597127567945391569e+00 -3.119690958936010006e+00 -2.399451370373574033e+00 -1.089106019411039794e+00 3.795676202007645550e+00 -2.266180798095180360e-01 1.538210930129027876e+00 2.486759870300278230e+00 -3.372808372778103081e+00 4.556666236383045465e+00 1.770066347511009663e+00 -3.347412042092895224e+00 1.299787886288969574e+00 -7.923582668669712170e+00 2.533544181510914761e+00 2.628636439791510071e+00 4.133155631310049927e+00 3.991469837689153977e+00 -2.920908672692776875e+00 3.742601429282629955e+00 -4.605298656698780135e+00 8.299804512050129590e-01 2.919791271166516378e-01 -6.504120204743087941e-01 -2.658085857835202237e+00 -2.012636581093033339e+00 1.247230419562766368e+00 9.404293957167385587e-01 -6.983846956643228188e-01 -6.176751896568553057e-01 -4.095244712063127679e+00 -3.445574712022502428e+00 1.342686746081094729e+00 -1.905881283688132033e+00 2.945938364036878809e+00 -2.858379952862239559e+00 4.730764387575618457e+00 1.031271465854213609e+01 -8.639272432701842197e-01 4.340294517738859881e+00 -1.741508073896682385e+00 -1.832010912655016366e+00 -3.649308429143031329e+00 2.953517462562214480e+00 6.622534941727571400e-01 -1.806993562607108972e+00 -1.338499961347171974e+00 1.172195852921986470e+00 8.288491657205335761e-01 1.349913603444217625e+00 -7.182007035869998335e-01 6.455732039247865650e-01 -1.249834433059767713e+00 -7.005012279616484427e+00 9.928412351478488773e+00 9.907931970444019409e-01 5.649675704936212295e-01 1.597483090426289554e+00 1.029410141277772972e+00 -2.367741438243622820e+00 4.974889624478125993e-01 1.682208659903658088e+00 2.598077847752353620e+00 -5.453221809908307627e+00 3.528024855014043837e+00 -3.259146063269782179e+00 9.044930838609080981e-01 -1.064446566952767848e+00 6.021981757878308583e-01 -2.462784845560116231e+00 -1.721317199102103013e+00 -2.538302779635173589e+00 1.124466918331810117e-01 5.147976817824113205e+00 -2.206001552527635301e+00 8.463893357808434104e+00 -4.197992173528924731e+00 -4.703272093420075350e+00 1.029326323307786728e+00 1.460350720880423614e+00 5.864182859413706872e-01 6.872374198768048670e-01 3.514324987797000421e+00 -3.331449603906894819e+00 -6.344917483836383099e-01 1.148784414041364721e-01 -1.273274154077501219e+00 8.561157169998554473e-01 -2.600036514302527024e+00 -2.007357591645913875e+00 -1.063439208650906465e-01 3.272829475425232282e+00 1.173422269231296777e+00 -2.486451337895420277e+00 -6.198161988582997495e+00 -9.144900479989808151e-01 -4.551316284482808783e+00 -6.462015815893472626e-01 -3.670358052464465226e-01 1.204351100156282328e-01 2.934775661629117627e-01 -3.480196161612963301e+00 1.482451411261073826e+00 -1.111544552775009381e-01 2.661426749559138827e+00 -2.824994689773909329e+00 -3.434963254178087788e-01 -1.710685686651372661e+00 1.287007959859078454e+00 -1.226863681297418185e-01 6.308495233442902306e-01 2.057716764987504110e+00 9.750863265337580410e-01 4.102822782147114156e-01 1.356388670180836531e+00 -1.960952261072578473e+00 -5.909850797539433209e-01 -1.100529431700905780e+00 4.414940333549519202e+00 2.851828781465755469e+00 -6.159785185404740737e+00 -6.207697696775807961e-01 -1.579829894661667067e-01 7.800110571348930488e-01 -5.986245992085636125e+00 3.219843662876950674e+00 -1.433153589392194838e-01 -5.538069249685595441e-01 -2.064326043320236170e+00 4.893545055937325583e-01 3.799190900319652231e-01 2.853981309210313899e-01 7.468253116683714055e-01 1.100034237191108710e+00 -7.096630977239054561e-01 2.301954101997110591e+00 -5.927859319790316661e+00 -3.465955334246070052e+00 -6.647022130259798434e-02 5.211107175844124084e-01 -4.367814579810840314e+00 -3.220607794799649426e+00 -3.044613197758550549e-01 -2.143919690463467753e-01 -9.653089346238095114e-01 1.701484221897159033e-01 7.146885763783666912e-01 1.424726540974174505e+00 -3.880837316396538395e+00 -2.244325390976392054e+00 -1.528593975069605371e+00 -1.085267362073932151e+00 8.576830616165340704e-01 -1.271674413558312899e+00 2.501927323323095642e+00 4.082925527357825324e+00 3.337028384007400650e+00 1.502069444223966821e-01 -1.612791439913991709e-01 -1.864721518218056762e+00 -1.495539870095823121e+00 2.460784012914612351e+00 1.307732595714061974e+00 1.356218463137489616e+00 2.768163020799073948e+00 -1.624963043285638231e-01 7.670254424350966271e-01 -1.776784126406116826e+00 1.626828121673004723e+00 6.703962814017684124e+00 1.572335642547667334e+00 6.408310608621198279e-01 2.932754774377298035e-01 1.728513203224740336e+00 -6.296323630071255506e-01 2.334503756488949922e+00 1.129489311662222883e+00 4.537536198840503410e+00 -1.317909022867627122e+00 -1.539251712774748704e+00 -8.367738205393103756e-01 1.266816570843824152e+00 8.518749390950830502e-01 3.098333317430392864e+00 -1.754750798933860656e+00 -3.274202444626849728e-01 -7.608892471231465393e-01 -9.445236207292035946e-01 1.366936364661580638e+00 2.941246100379663719e+00 1.257689668087451196e+00 5.633359482925974770e-01 -9.992048188421792654e-01 -4.250729617491295187e+00 1.600418262037838435e+00 -3.635924807640968037e+00 2.085173063695813678e+00 3.855220385041857045e-01 1.411204594110599952e+00 -5.477924971123934839e+00 4.591081483482926551e+00 2.549094728936430188e-01 2.572877949364905437e+00 3.755430720897298791e+00 -4.945286454452680225e+00 3.977255235576673820e-01 -2.748974876320283478e+00 -4.628555829376973740e+00 -1.260042741895167850e+00 1.450966193565994267e-01 -1.480002178187176165e+00 2.491574004257412212e-01 -1.018033523069310498e+00 -7.823137373164830155e-01 2.159636331166931544e+00 -2.322057559276980321e+00 -1.608227217204793114e+00 -4.500335932566104646e-01 2.880924929905885001e+00 2.787094054940483456e+00 -2.230412122179322498e+00 -3.018706245943302502e+00 4.104203464658853662e+00 -5.561677120863977031e-01 -4.888442444181650082e+00 -2.015876171344042067e+00 -1.963772247252979941e+00 -7.665266483805761588e-01 8.865190143952332846e-01 -4.484981303217673576e-02 3.131901128858263661e+00 4.281545319867832711e-01 -3.410964575286886680e-01 -3.172769331205748777e+00 -1.620187475879112160e+00 -9.457248402254506692e-01 1.639761800084650334e+00 -4.655539045064500669e+00 -3.596370439117503093e+00 2.717833158035945385e+00 -1.699412426798537545e+00 2.764867380494516524e+00 -1.759580873731912076e+00 2.173804139198009189e+00 -3.239615962042273090e+00 -2.349151846630256113e+00 -3.879205179974839712e+00 -2.169409095090807593e+00 1.624845286751117612e+00 -1.331384175649797941e+00 4.308233887108720239e+00 2.033200265876816015e+00 1.865700594382805777e+00 1.757392864760794371e+00 1.650705444484961815e+00 6.303964949298237475e-01 -5.987431270740964928e-01 -1.233367030171149015e+00 -2.006039129835820667e+00 -2.882618258587880122e-01 4.462288230619695817e+00 3.979993460669787542e+00 -1.242855944282555553e-01 3.367008992008123647e-01 3.084125914407359059e-01 -8.109167481295145308e-01 1.574667633307718528e+00 -2.980608664591442025e+00 4.689276035094368522e-01 -1.331770869597220130e+00 -3.882444256005173955e+00 2.089620558311841236e+00 -5.001670751440471463e+00 -8.885476149571742976e-02 -3.663909725202934009e-01 -1.146999554079261463e+00 -6.865262526836073409e-01 4.393732844480933153e-01 -2.080768249395791525e+00 4.055499053448651248e-01 1.211253484273629777e+00 -2.730400197106484406e+00 -3.858443006010598086e+00 3.303117587389463594e+00 -2.113709740041800789e+00 1.245304148915103326e+00 1.050515814652756230e+00 1.846103644467578242e-02 9.855815705056762965e-01 3.292940646015223294e+00 3.344223873909363487e+00 -1.985651822743482064e+00 2.494679897132981994e-01 9.891806010083442624e-01 -1.378207567631716257e+00 3.129798994739831364e-01 -4.600341569394063024e-01 3.903654830397809000e-02 -4.896785160409009130e+00 2.965883955569595720e+00 2.452802793821611704e+00 -8.032723435784838717e-01 8.260878006970548970e-01 2.276733120561997392e+00 -1.724177808715811056e+00 1.078053360227678309e-01 -1.116518609361994319e+00 -1.712352275858280537e+00 3.365209733867127184e+00 -1.512172852041715476e+00 -7.214984007742566430e-01 1.645958673436222208e-01 4.630911988508739086e-01 -8.818082387937270505e-01 4.620584894697468137e+00 1.412531283451489150e+00 2.687013856114683907e-01 -3.625296894734960640e-01 -9.262780427472536715e-01 -7.423788454936935954e-01 1.523092842290987958e+00 -1.788995324769720119e+00 -3.901053902224855818e+00 5.735247167423567216e-01 -1.674841934516999808e+00 -4.041625379643539184e-01 -6.697379760939364823e-01 -2.281856301144662869e+00 -4.170879374231356351e+00 -3.620073441120715607e+00 1.441080815314345287e+00 4.187918590510312455e+00 1.706095238687761251e+00 2.654452374547325189e+00 -1.013149455100409435e+00 4.927473336058205144e-01 3.372218047443475419e-01 -3.837567189277233948e-01 -5.706265690193909057e-01 -1.807501612633774846e+00 -1.619660399687479657e+00 1.660247323325869218e+00 -3.153196549662234283e+00 1.234031403282943140e+00 1.498071378477682458e+00 -4.819474653061727842e+00 1.014385127381865148e+00 5.264719823394943266e-01 9.715634006909548703e-02 6.646009115530514544e-01 -5.599657459901991041e-02 1.078279103103899406e+00 1.770148108598297021e-01 3.188029343950022909e-01 -3.904061578951545819e+00 -3.289742193418195848e-01 -6.930805094041398995e-01 3.428100979273372317e+00 2.004216217543784984e-01 3.320998582913005759e+00 -4.471354455336447320e-02 1.152144331930267773e+00 1.557205727634108028e+00 1.675415804790035379e+00 -3.494191705717994978e+00 -2.624714992925765600e+00 -2.045510194609974075e+00 1.154650129278389281e+00 9.283272121361854090e-01 1.924548008402713339e-01 -3.144742247548452108e-01 2.701032540150079875e+00 -4.519039166948592978e+00 1.385557837956782334e+00 -1.368639463536396317e+00 3.892949784390586920e+00 -2.630695379373262366e+00 6.544836197770842467e-01 -2.079174679524700142e+00 3.043157439028294942e+00 -4.147405714649088915e-01 6.738239735756053062e-01 9.967005641560822138e-01 -2.558212375720657406e+00 1.481537641122019577e+00 4.606201113982990591e+00 -7.704645503079132762e-01 -2.058131741072037890e+00 1.726071683460964179e+00 -2.388573031998957319e+00 -1.798960921446632222e+00 -7.582492381789120162e-02 1.095181022462692999e+00 3.659281739130064159e-01 -3.410189130509343247e+00 -9.646471326153890913e-02 2.495825580796354970e+00 1.539846151874775027e+00 -3.938930368686567873e-01 2.681634079415310623e+00 1.435874845203042094e+00 8.112787594845478623e-01 -3.284173697731184838e+00 -3.546906009750001143e+00 -4.878514385613996057e-02 2.238481787228382203e+00 -1.519879991515067141e+00 1.153602661763896420e-01 -1.223982502856719723e+00 2.589544355654657792e+00 -2.389171584864381970e+00 -1.207036874740570864e+00 -8.704912701835372246e-01 1.541481887841197107e+00 -5.406352652286336991e+00 -1.775255348340045725e+00 6.631400106160489916e-01 9.167526189679391369e-01 8.265583126144633586e-02 6.466112097788636603e+00 3.416327896924666874e-01 8.058821163470424764e+00 -2.863916052646740540e-01 -1.665993225145673717e+00 3.618756007751972037e-01 -2.059973679529040425e+00 -6.193788027523461359e-02 -1.053371282059716529e+00 -2.860003347532466655e+00 -8.500947071190525506e+00 2.258258200159102724e+00 -1.054277853109324425e+00 1.261744812328634335e+00 3.290900732598437628e+00 -3.032544952742531219e+00 -1.545634219789910224e+00 -4.170091588157619711e+00 3.393882678691925836e+00 -2.689303680779404626e+00 -1.305456655007559919e+00 3.327722532456210303e+00 -1.838012382150178148e+00 4.989780940998595149e+00 -4.181262518096175995e+00 3.006263134055381148e+00 1.982648259782189726e+00 -1.116788575216245194e+00 -3.393702701455758586e+00 -3.502652178479874756e+00 -9.035937119007472762e-02 1.448525188022893095e+00 7.000425431197595527e-01 -4.750756258969063950e+00 -3.716219851784576367e+00 -4.498631805249939219e+00 -1.766768136103078257e+00 2.556170405421172576e-01 -1.924506356528057571e+00 9.150875724230558284e-01 2.256655374315865714e+00 -4.226814756570080434e+00 -1.033097103515825621e+00 -2.742898844827280413e+00 -6.728834639614632573e-01 7.981527625405408777e-02 5.614275211023485923e+00 -8.355314633890821296e-01 3.211057688427946033e+00 -1.308726070057704804e+00 -2.227601391971066658e+00 5.396498127275172862e+00 1.539936140492858430e+00 2.585244442372287565e+00 1.633675998398827156e+00 -4.043379386365155703e+00 -2.632945094825351440e+00 2.339788402363492281e+00 -3.014523060754102701e+00 -6.795364510515503609e-01 1.490453199181064781e+00 -7.463182900830548361e-01 2.284072078032218567e+00 1.067974635002318512e-01 1.710868234990913894e+00 6.682524439866127430e+00 7.681320453271870186e+00 -7.746112258292042752e-01 1.416569458410404936e+00 6.719398690232726290e-01 7.457562468855386539e-01 7.833956576161849039e-01 -8.299161736206674134e-02 -3.599280928136663338e+00 1.924058984541013428e+00 -1.768508258866477112e+00 5.224770019172584323e-01 -5.399322227220972881e-01 9.663250346771417032e-01 -3.507972305580975836e-01 3.265470977569370215e-01 4.168511388024072062e+00 -1.031133294758904695e+00 2.699098041971620954e-01 -1.706327152212079312e+00 -3.483979283117196513e+00 9.545884619963449502e-01 2.879869749081270580e+00 -3.440798116174626387e+00 -2.718972671051220757e+00 -1.463671557998044825e+00 -6.423819504172056938e-01 -3.524926161227919685e+00 2.995594597716067842e+00 4.575743823416762446e+00 -2.059757192624964706e-01 5.411606959141067319e-02 -5.700933221796615769e-01 -2.083044704322968510e+00 -5.155987861716251341e-01 1.595355759494794023e+00 2.259913476511165253e+00 -1.826090690026466845e+00 -5.624576593801018376e-01 3.202507227047982408e+00 5.238885376694836227e-01 -2.306390797978968177e+00 -6.358369496688190958e-01 1.654242768506658245e-01 -1.967351223149331974e+00 -6.023853521134446831e-01 -7.987250901515523527e-01 1.992813888301584457e+00 8.323603159098846405e+00 -3.639551606060073219e+00 2.673850321061419066e+00 -5.890089297008280211e-02 -2.024735679349538575e+00 -4.963638476114305420e-01 7.453428134630288859e-01 -1.018551343288797373e+00 6.494803554557727843e+00 -6.283396122307706166e-01 -1.637446264386191119e+00 2.017452771932866096e+00 3.030120916481697346e+00 -3.256109590185304548e+00 1.856988153490292115e+00 -9.383416597771998546e-01 -2.598819353965362566e+00 -1.182844334654983953e+00 3.162873668540604477e-01 2.921718056034854349e+00 4.331053972213364744e+00 1.198487441801957099e+00 1.224467412953021306e+00 -4.869140142713062058e-01 1.563400544102981016e+00 6.505205210366838964e-01 -5.855369117048264682e-01 -1.549244048926748385e-01 -1.164019744193250494e+00 -2.065444473287846583e-01