3.002191225364338223e+01 1.407444334545165709e+01 9.848098880797948596e+00 1.407444334545165709e+01 5.591919769765664405e+00 -1.857489204844207009e+01 9.848098880797948596e+00 -1.857489204844207009e+01 1.301265907504689956e+01
-4.051113675742524123e+00 -1.432606204962412733e+01 1.857447402975413198e+01 -1.432606204962412733e+01 -6.544803322811745261e+01 -3.195262957671614856e+01 1.857447402975413198e+01 -3.195262957671614856e+01 -5.508071498935949961e+01
-1.132164613106129707e+02 -2.198001058283843889e+01 -2.629953939625905068e+00 -2.198001058283843889e+01 -1.678387759133356667e+02 3.487064064849326073e+00 -2.629953939625905068e+00 3.487064064849326073e+00 -1.440545148448875068e+02
-6.076257651647712521e+01 1.725110656175103685e+01 8.481528155550416059e+00 1.725110656175103685e+01 -1.084906944294966848e+02 -2.710356654422759703e+01 8.481528155550416059e+00 -2.710356654422759703e+01 -8.822415798749388216e+01
-1.089859477302065471e+02 2.588068251467893788e+01 -1.114718293306219188e+01 2.588068251467893788e+01 -6.908133543603871374e+01 -9.963499251496790166e+00 -1.114718293306219188e+01 -9.963499251496790166e+00 -9.271665930586034676e+01
-3.882113530977545679e+01 1.851722449936978876e+01 -3.826317360364598130e+01 1.851722449936978876e+01 -1.201833414683308661e+02 -6.112352568140729581e+00 -3.826317360364598130e+01 -6.112352568140729581e+00 -5.368041054878079876e+01
-9.989292031705539898e+01 -2.287068088382280351e+01 -2.860463290056148011e+01 -2.287068088382280351e+01 -1.153753872923063142e+02 -1.392174352807203164e+01 -2.860463290056148011e+01 -1.392174352807203164e+01 -9.043141114876870290e+01
-3.887420745029866964e+01 1.742349950108618728e+01 3.158016459380804619e+01 1.742349950108618728e+01 -4.973747103490295274e+01 -1.930989878165894069e+01 3.158016459380804619e+01 -1.930989878165894069e+01 -1.660159629684881466e+01
-4.187884853684607123e+01 1.289997831707265341e+00 1.519381746006580336e+01 1.289997831707265341e+00 -1.099420743939423630e+02 -7.036490384916239016e+00 1.519381746006580336e+01 -7.036490384916239016e+00 -5.300014930314065964e+01
-8.830031633177947015e+01 3.964214421091168727e+00 7.051275248440847854e+00 3.964214421091168727e+00 -8.626231812283947420e+01 -2.805725339786636852e+01 7.051275248440847854e+00 -2.805725339786636852e+01 -5.370157640506642593e+01
-1.660040350099259285e+02 -2.164010991482642510e+01 3.214907905109151898e+01 -2.164010991482642510e+01 -8.919111587136748653e+01 2.913423253497629872e+01 3.214907905109151898e+01 2.913423253497629872e+01 -1.032676865941548527e+02
-5.508824852870109368e+01 -4.863124694040617868e+00 -1.325920821222445056e+01 -4.863124694040617868e+00 -9.926042511825434644e+01 -1.910135800261514660e+01 -1.325920821222445056e+01 -1.910135800261514660e+01 -2.337054960046237895e+01
-2.406727731179389451e+01 1.497709400115437184e+01 1.858509767083945974e+01 1.497709400115437184e+01 -3.671703910554163031e+01 6.104781824837029802e+00 1.858509767083945974e+01 6.104781824837029802e+00 -8.236250766395843925e+01
-1.661644909607955967e+01 -5.290365903776002909e+00 1.072287861481441062e+01 -5.290365903776002909e+00 1.383138706670625773e+01 -1.593531880281218704e+01 1.072287861481441062e+01 -1.593531880281218704e+01 -3.036649006254428329e+01
-4.868265234445782852e+01 4.742735249464141489e+00 2.627207440546550998e+01 4.742735249464141489e+00 -4.217977337864424925e+01 -1.805729911617060068e+01 2.627207440546550998e+01 -1.805729911617060068e+01 -1.099189154691595434e+02
-2.543648072995799225e+01 -2.950375001004112363e+01 1.366846223849707442e+01 -2.950375001004112363e+01 -5.855112545352774589e+00 1.949882997061590473e+01 1.366846223849707442e+01 1.949882997061590473e+01 -3.674571278010244857e+00
-1.039119861610673325e+02 -2.189341624664685071e+01 1.910109787170543072e+01 -2.189341624664685071e+01 -1.313808481657498533e+02 6.880360946714937143e+00 1.910109787170543072e+01 6.880360946714937143e+00 -1.174114146522832414e+02
-8.640457022000713039e+01 -4.726167883990282093e+01 -2.704292805619594731e+01 -4.726167883990282093e+01 -9.269068639938400622e+01 8.915472066307444265e+00 -2.704292805619594731e+01 8.915472066307444265e+00 -8.719829919471432333e+01
-1.150226261155429768e+02 -1.681791475188173735e+01 1.371572283674143300e+01 -1.681791475188173735e+01 -9.157499895656185629e+01 -1.833528610333338094e+01 1.371572283674143300e+01 -1.833528610333338094e+01 -6.966225504275377034e+01
-6.091408383271545546e+01 -2.846918613468241155e+00 -2.621660512768062112e+00 -2.846918613468241155e+00 -5.268108888954311908e+01 5.701682619506743777e+01 -2.621660512768062112e+00 5.701682619506743777e+01 -8.444247993197673452e+01
-7.197855409448297337e+01 -1.664235803630589672e+01 1.178835828758931648e+01 -1.664235803630589672e+01 -1.214335441597879850e+02 1.048121525846922308e+00 1.178835828758931648e+01 1.048121525846922308e+00 -7.316429808080575192e+00
-4.018144815141903337e+01 -6.171796643092869061e+01 1.598824343613674159e+01 -6.171796643092869061e+01 -8.451051257585821475e+01 -1.061350171091671335e+01 1.598824343613674159e+01 -1.061350171091671335e+01 -1.140641734908256097e+02
-6.181502206551211032e+01 -2.059766124904201945e+01 -7.843797154835741026e+00 -2.059766124904201945e+01 -5.917323757400422579e+01 -1.421942310089620598e+01 -7.843797154835741026e+00 -1.421942310089620598e+01 -1.299946104708915868e+02
-1.047166534712927159e+02 1.550150656476287736e+01 2.199719232127639312e+00 1.550150656476287736e+01 -8.413353097603392428e+01 1.860119230430483483e+01 2.199719232127639312e+00 1.860119230430483483e+01 -1.085735677822632823e+02
-4.321578168362300687e+01 7.827456479196351680e+00 7.977267409466059611e+00 7.827456479196351680e+00 -6.146652127981930391e+01 -3.332220127202272408e+01 7.977267409466059611e+00 -3.332220127202272408e+01 -4.423005469791967670e+01
-1.087500235640745245e+02 -1.463832809571761651e+01 -3.806441961504042126e+01 -1.463832809571761651e+01 -8.021736835731634585e+01 7.618835393979486170e+00 -3.806441961504042126e+01 7.618835393979486170e+00 -5.360676804179615829e+01
-2.362756572086953000e+01 8.086119164409222293e+00 -5.541455644484427623e+00 8.086119164409222293e+00 -4.527655206301415802e+01 3.600542504583027181e+01 -5.541455644484427623e+00 3.600542504583027181e+01 -6.308149031454640721e+01
-1.239562621411828900e+02 -1.552929357454785997e+00 2.456294047557647175e+01 -1.552929357454785997e+00 -9.946231085999609434e+01 2.373023651782729004e+00 2.456294047557647175e+01 2.373023651782729004e+00 -4.477821898926762145e+01
-4.729516076180023987e+01 1.611777233714382263e+01 -8.329034008847338910e+00 1.611777233714382263e+01 -8.175985839293616664e+01 2.905472774472975317e+01 -8.329034008847338910e+00 2.905472774472975317e+01 -3.860346458174138462e+01
-6.793280811635872496e+00 2.251606412299774362e+01 5.628033486338314617e+01 2.251606412299774362e+01 4.837847097270715047e+00 -6.821137749869797062e+01 5.628033486338314617e+01 -6.821137749869797062e+01 -1.027032741505592384e+02
1.990925336958984460e+01 3.566022816740835566e+01 9.578069313545015007e+00 3.566022816740835566e+01 -3.571673760849665058e+01 1.547182486299592874e+01 9.578069313545015007e+00 1.547182486299592874e+01 -6.238809344127461998e+01
-7.355748754592499949e+01 1.582799191199242017e+01 -4.034311734282013617e+01 1.582799191199242017e+01 -3.833963291650745475e+01 4.048521153259061123e+01 -4.034311734282013617e+01 4.048521153259061123e+01 -4.054815489585088528e+01
-1.269600952676759533e+02 4.049209712216318202e+00 -3.511630431054847179e+01 4.049209712216318202e+00 -8.134607295657892223e+01 -7.478730102859260320e+00 -3.511630431054847179e+01 -7.478730102859260320e+00 -6.773774809544606512e+01
-6.988211748831729153e+01 -1.338926325095610270e+00 1.234714528615259432e+01 -1.338926325095610270e+00 -1.926667721225082630e+01 -3.070979868427295312e+00 1.234714528615259432e+01 -3.070979868427295312e+00 -1.624208369701277377e+01
-7.938610463101755954e+01 3.617335958328334655e+00 -3.824201370152839985e+01 3.617335958328334655e+00 -6.641043250719064872e+01 6.821275236373727791e-02 -3.824201370152839985e+01 6.821275236373727791e-02 -2.731913891950301121e+01
-6.283183212618301638e+01 1.078119888818204614e-01 1.535400608659649713e+01 1.078119888818204614e-01 -7.107812380130316399e+01 -1.762388130234557337e+01 1.535400608659649713e+01 -1.762388130234557337e+01 -1.004048673388769259e+02
-5.872241580881769352e+01 3.779476678038339799e+01 1.525205561278774979e+01 3.779476678038339799e+01 -9.139290429488880818e+01 2.101612572048744454e+01 1.525205561278774979e+01 2.101612572048744454e+01 -5.796089707641611000e+01
-1.303999361025836663e+02 9.179503768141591635e+00 -3.483165639114655932e+01 9.179503768141591635e+00 -8.850606278184349662e+01 -3.578199593563793002e+01 -3.483165639114655932e+01 -3.578199593563793002e+01 -5.518478305411706941e+01
-7.513653007828638408e+01 3.339708339416922911e+01 -9.688498531960433979e+00 3.339708339416922911e+01 -1.039634670092670063e+02 3.445759772278235999e+01 -9.688498531960433979e+00 3.445759772278235999e+01 -5.991583752064036617e+01
-9.169990136158907035e+01 -1.266805926707378127e+01 -1.637381888070002844e+01 -1.266805926707378127e+01 -5.916230194175827251e+01 7.296246588103114661e+00 -1.637381888070002844e+01 7.296246588103114661e+00 -6.940409977596972624e+01
-6.091438582228208887e+00 -2.896524465595209374e+00 -5.326019518698824839e+00 -2.896524465595209374e+00 -1.204262580792673809e+01 -1.099264407490225715e+01 -5.326019518698824839e+00 -1.099264407490225715e+01 -3.193214136600544606e+01
-1.881934739382768385e+01 -4.800288730816080207e-01 4.524390314716319494e+01 -4.800288730816080207e-01 -4.052778600054836033e+01 1.711434021002386530e+01 4.524390314716319494e+01 1.711434021002386530e+01 1.202788255305619280e+01
-7.367376285287137705e+01 -2.324153082193332942e+00 -1.241232781019313514e+01 -2.324153082193332942e+00 -3.971888332021659807e+01 -2.752855945068998778e-01 -1.241232781019313514e+01 -2.752855945068998778e-01 -1.070867544984662771e+02
-6.378104028824068905e+01 -5.578103425498209589e+00 -1.596153963766555783e+01 -5.578103425498209589e+00 -9.210012504155133684e+01 -1.456386524026640039e+01 -1.596153963766555783e+01 -1.456386524026640039e+01 -7.977483071652245883e+01
-1.133396649429333962e+02 1.760803322582706887e+00 4.909177364375219010e-01 1.760803322582706887e+00 -1.044345727919346274e+02 2.068585467414993495e+00 4.909177364375219010e-01 2.068585467414993495e+00 -8.760556999504385089e+01
-8.865041758150806572e+01 7.302728938025831340e+00 -1.649795159105736175e+01 7.302728938025831340e+00 -3.156466508202855437e+01 -3.775021569339025262e+01 -1.649795159105736175e+01 -3.775021569339025262e+01 -8.174363058304838603e+01
-4.356220261857639287e+01 -4.200577946422202302e+01 -1.873498779481365162e+01 -4.200577946422202302e+01 -9.460426942080857771e+01 2.267837526429970296e+01 -1.873498779481365162e+01 2.267837526429970296e+01 -1.120334432892369705e+02
-6.327549930273786316e+01 1.411812243855961668e+01 1.835722101128666495e+01 1.411812243855961668e+01 -8.865913136818907958e+01 3.158376123288858750e+00 1.835722101128666495e+01 3.158376123288858750e+00 -1.083129253284268998e+02
-6.447209675733016354e+01 2.467142820008285664e+00 -1.005327866451947294e+01 2.467142820008285664e+00 -4.916564644946056006e+01 -1.804395089295376309e+01 -1.005327866451947294e+01 -1.804395089295376309e+01 -3.020830819039185045e+01
-4.246034274476383530e+01 2.141603839574211321e+01 -1.522444977261651111e+01 2.141603839574211321e+01 1.469099741626333255e+01 2.814010369264831368e+01 -1.522444977261651111e+01 2.814010369264831368e+01 -7.004762788410155849e+01
-2.841654867054901246e+01 -8.414330164564965742e+00 1.275724298634053078e+01 -8.414330164564965742e+00 -3.930872956905761217e+00 -7.930431345791066455e+00 1.275724298634053078e+01 -7.930431345791066455e+00 -3.807388013940097693e+01
-5.075097750842445521e+01 -3.102890086356730492e+01 -3.618288933390162754e+01 -3.102890086356730492e+01 -2.811747322024739049e+01 -4.845023410633116612e+01 -3.618288933390162754e+01 -4.845023410633116612e+01 -4.541154260772442086e+01
-5.827175298975176787e+01 4.326945511552126789e+01 -3.888579456689290481e+01 4.326945511552126789e+01 -4.434762715831739399e+01 -4.434604876156241993e+00 -3.888579456689290481e+01 -4.434604876156241993e+00 -8.442998860810992312e+01
-4.510984106008160666e+01 -6.370174404842503968e+00 -2.900289187521745404e+01 -6.370174404842503968e+00 2.369234630165967914e+01 -6.360755363958946162e+01 -2.900289187521745404e+01 -6.360755363958946162e+01 -6.079794055280530074e+01
-4.727038603585121024e+01 1.218767213195726740e+01 -1.553890895245285364e+01 1.218767213195726740e+01 -5.532660949869448785e+01 1.545262843695907229e+01 -1.553890895245285364e+01 1.545262843695907229e+01 -7.634833868995613670e+01
-2.233772254650384781e+01 1.626215766513833216e+01 4.616554969602292857e+01 1.626215766513833216e+01 -3.543535386051080138e+01 2.924060513429082775e+01 4.616554969602292857e+01 2.924060513429082775e+01 -2.958945818282315798e+01
-4.351535268088378317e+00 9.939734291346445261e+00 -2.638804560148342304e+01 9.939734291346445261e+00 -2.404072810452878528e+01 1.448042053330738455e+01 -2.638804560148342304e+01 1.448042053330738455e+01 -7.047891849664131314e+01
-1.248642035446900564e+02 2.505865922394522016e+01 -2.594521241031508829e-01 2.505865922394522016e+01 -1.095993939431930926e+02 -3.981977325616617946e+01 -2.594521241031508829e-01 -3.981977325616617946e+01 -1.560540698060342493e+02
-5.346794234378806721e+01 -7.780533849630936416e+00 1.724900489182319063e+01 -7.780533849630936416e+00 -6.688924622761427941e+01 1.624779047489902695e+01 1.724900489182319063e+01 1.624779047489902695e+01 -4.907468842105088669e+01
-2.006870466131895014e+01 2.607939350923833111e+00 3.900994123133983038e+01 2.607939350923833111e+00 -9.063349591377250647e+01 -3.460532197888838368e+01 3.900994123133983038e+01 -3.460532197888838368e+01 -8.281415232950672589e+01
-7.609009515342712859e+01 -2.700445518400863776e+01 9.369505476318707338e+00 -2.700445518400863776e+01 -9.376776018943921542e+01 3.925925099906378790e+01 9.369505476318707338e+00 3.925925099906378790e+01 -4.628062192921807849e+01
-7.435269154161878191e+01 -1.808768783431284533e+01 -2.905550956100211124e+01 -1.808768783431284533e+01 -4.021454454988677440e+01 2.806830774576279275e+00 -2.905550956100211124e+01 2.806830774576279275e+00 -3.265674622861643428e+01
-1.250759085542755287e+02 -3.504840117378610387e+01 -1.167419905075847808e+01 -3.504840117378610387e+01 -1.244202090588376421e+02 -9.328016541337216694e+00 -1.167419905075847808e+01 -9.328016541337216694e+00 -4.304242926435235006e+01
6.708628700710995929e+00 1.249644857251732688e+01 2.258315016514683027e+00 1.249644857251732688e+01 -9.262841241028267802e+01 2.142132944880589207e+01 2.258315016514683027e+00 2.142132944880589207e+01 -1.311682159891562662e+02
-3.707167783906783853e+01 -3.049122128327174508e+01 2.224867063594764005e+01 -3.049122128327174508e+01 -6.061362121598766350e+01 -1.077519114540564438e+01 2.224867063594764005e+01 -1.077519114540564438e+01 -2.779700243949993421e+01
-4.805280068952371408e+01 7.994062764587183345e+00 -2.844904226225398514e+00 7.994062764587183345e+00 -4.782793381042537817e+01 -6.635315840090181716e+00 -2.844904226225398514e+00 -6.635315840090181716e+00 -9.051226085094151586e+01
-7.419992191958779415e+01 4.098971259981453130e+01 -1.750512304253761586e+00 4.098971259981453130e+01 -9.079202987222765842e+01 -2.321299625155263513e+01 -1.750512304253761586e+00 -2.321299625155263513e+01 -4.613146484947427695e+01
-3.822024179050250581e+01 4.703949626749652424e+01 -6.490195979355363853e+00 4.703949626749652424e+01 -9.799964527019378124e+01 5.060230952985695474e+00 -6.490195979355363853e+00 5.060230952985695474e+00 -7.762248038856996857e+01
-2.799143545879150707e+01 -3.542988895857006781e+01 -2.444449477023281148e+01 -3.542988895857006781e+01 -3.686811213940682563e+01 1.463364020833370738e+01 -2.444449477023281148e+01 1.463364020833370738e+01 -6.592623391394610621e+01
-6.363785359532895569e+01 -5.949536499441804294e-01 -5.339285977714136067e+01 -5.949536499441804294e-01 -7.118305794075622828e+01 -2.357498739206679161e+01 -5.339285977714136067e+01 -2.357498739206679161e+01 -6.394112995380605469e+01
1.552757874340773059e+00 1.351482962926064424e+01 -7.906669662130032350e+01 1.351482962926064424e+01 -8.035249230557769806e+01 -6.452124950552967420e+00 -7.906669662130032350e+01 -6.452124950552967420e+00 2.090793465885019486e+01
-1.011815481205610894e+02 3.416906054422354089e+01 -1.661006659876817793e+01 3.416906054422354089e+01 -7.507313300812859325e+01 -7.051842556653297178e-01 -1.661006659876817793e+01 -7.051842556653297178e-01 -1.066895004552753363e+02
-1.601912184077010863e+02 -2.153224784495389699e+01 2.290303980819576779e+01 -2.153224784495389699e+01 -6.072805012870631458e+01 8.774818626685298995e+00 2.290303980819576779e+01 8.774818626685298995e+00 -3.967951962693883416e+01
-7.506018105217378888e+01 1.304751225713997620e+01 -1.186099930306203909e+01 1.304751225713997620e+01 -2.831751223742658041e+01 4.453905049512487224e+00 -1.186099930306203909e+01 4.453905049512487224e+00 -5.995991230451929255e+01
-5.346150213712184041e+01 2.533021438277832615e+01 5.997819454996782440e+01 2.533021438277832615e+01 -1.123767628029633272e+02 2.888415829141669988e+01 5.997819454996782440e+01 2.888415829141669988e+01 -1.374685520650207593e+02
-1.337639332396138911e+02 -3.079160266057609618e+01 3.327216253359834752e+01 -3.079160266057609618e+01 -1.046647310883136726e+02 6.128033288047847194e-01 3.327216253359834752e+01 6.128033288047847194e-01 -9.125155211272561928e+01
-3.784078980047712371e+00 3.950251581621257446e-01 -1.101529582866437451e+01 3.950251581621257446e-01 -7.016320253811903740e+01 3.027123476870660923e+01 -1.101529582866437451e+01 3.027123476870660923e+01 -1.760389615427075327e+01
-5.378748944595636061e+01 4.695034314258800023e+00 -6.622421024731766082e+00 4.695034314258800023e+00 1.385679080373587091e+01 -2.578580882504674321e+01 -6.622421024731766082e+00 -2.578580882504674321e+01 4.614745857613279156e+01
1.402360806971430662e+01 1.500091942072219986e+01 -7.337617343132528447e+00 1.500091942072219986e+01 -5.210658699639505897e+01 1.677218741822554904e+01 -7.337617343132528447e+00 1.677218741822554904e+01 -1.479893984257751072e+01
-2.139535593535032021e+01 -1.942909471719511671e+01 -2.070515344859988449e+00 -1.942909471719511671e+01 -1.380943200669661231e+01 1.449484920488339768e+00 -2.070515344859988449e+00 1.449484920488339768e+00 -7.203841418325679058e+01
-1.254313538799946848e+01 -3.099633776977090704e+01 -2.102910408658952690e+01 -3.099633776977090704e+01 -9.740910041537779307e+01 1.694727880141129717e+01 -2.102910408658952690e+01 1.694727880141129717e+01 -3.461203904725784497e+01
2.339385223902719702e+01 -1.321152669452100303e-01 -5.532105411293420261e+00 -1.321152669452100303e-01 -3.880136568845562550e+01 -1.453158677989317304e+00 -5.532105411293420261e+00 -1.453158677989317304e+00 -6.623188999503527441e+01
-7.279512279881993209e+01 -3.131452938802892216e+00 -4.884058567627435110e+01 -3.131452938802892216e+00 7.687764251279585181e+00 1.586381183881585777e+01 -4.884058567627435110e+01 1.586381183881585777e+01 -2.886794476399449039e+01
-7.583146454521505575e+01 7.906917952416095297e+00 -5.481247483301795675e+00 7.906917952416095297e+00 -4.719676908444779606e+00 1.324049439306248743e+01 -5.481247483301795675e+00 1.324049439306248743e+01 -7.451941265486875521e-01
-1.274204841655013922e+02 -4.210443322920130527e+01 -1.581238173437158778e+01 -4.210443322920130527e+01 -1.217579295372854631e+02 1.795927580875843432e+01 -1.581238173437158778e+01 1.795927580875843432e+01 -4.310652499543912342e+01
3.730345705731104999e+01 9.219723238754689021e+00 -1.505522108209321086e+00 9.219723238754689021e+00 -2.928130218116552896e+01 -3.257081490573560245e+01 -1.505522108209321086e+00 -3.257081490573560245e+01 -5.894158045191003481e+01
-4.539796028389585558e+01 -3.398748183581807325e+01 -1.946832466134677020e+01 -3.398748183581807325e+01 -5.643416027748804709e+01 -2.347883419903318014e+01 -1.946832466134677020e+01 -2.347883419903318014e+01 -2.521281704471018514e+01
-5.712342269981439102e+01 -1.818422748569036429e+01 2.184645899657338575e+00 -1.818422748569036429e+01 -7.204228750998362329e+01 -2.433075055475334980e-01 2.184645899657338575e+00 -2.433075055475334980e-01 -1.376593863618617490e+02
-2.416739645444155826e+01 -1.427517275515472051e+01 2.043333887772371238e+00 -1.427517275515472051e+01 -5.935691063815200863e+01 -9.586817801532115269e+00 2.043333887772371238e+00 -9.586817801532115269e+00 -2.809716390668511821e+01
-1.440873133599762639e+02 -6.572934825509040735e+00 4.395639874693996418e+00 -6.572934825509040735e+00 -1.185719489423165385e+02 -5.207266429714280775e+00 4.395639874693996418e+00 -5.207266429714280775e+00 -1.123855346217549283e+02
-2.317738367098601415e+01 -1.695763870298067033e+01 -1.000045234363351554e+01 -1.695763870298067033e+01 -6.615911479338232937e+01 3.234202797715228428e+01 -1.000045234363351554e+01 3.234202797715228428e+01 -8.706963548362547556e+01
-2.517847457661323674e+01 -1.091238745064759996e+01 -7.584026371535725453e+00 -1.091238745064759996e+01 -7.737135167141050829e+01 -1.767612010194820726e+01 -7.584026371535725453e+00 -1.767612010194820726e+01 -1.084049994719857608e+02
3.586358765085955635e+00 1.427534888134763413e+01 1.409860401484539594e+01 1.427534888134763413e+01 -2.352737508670803379e+01 4.891127762279897873e+00 1.409860401484539594e+01 4.891127762279897873e+00 -8.518678710739507665e+01
-7.057634223198016343e+01 8.446326463281302210e+00 7.609173249669001216e+00 8.446326463281302210e+00 -5.114595957081359501e+01 -1.709912777289663666e+01 7.609173249669001216e+00 -1.709912777289663666e+01 -2.997244507808838776e+01
-6.147381681196553416e+01 1.402582136280515890e+01 -3.572485740452034975e+01 1.402582136280515890e+01 -9.027459921972639734e+01 -1.667382748946963389e+01 -3.572485740452034975e+01 -1.667382748946963389e+01 -9.577976227256371544e+01
5.288817156955759380e+00 -5.076102258326965488e-01 1.372024929664387827e+01 -5.076102258326965488e-01 -5.621795911227825115e+01 4.692096408753811954e-01 1.372024929664387827e+01 4.692096408753811954e-01 1.389547785702285099e+00
-7.699616389162710739e+00 -5.137461043845437114e-01 -4.255702412657500489e+00 -5.137461043845437114e-01 -4.729627719475734438e+01 5.275030865346996833e+00 -4.255702412657500489e+00 5.275030865346996833e+00 -6.329621553153200608e+01
-1.468510287338859577e+01 4.526632062068721929e+00 -1.959403744476011511e+01 4.526632062068721929e+00 -4.681445925951420151e+01 -3.075747287740980340e+01 -1.959403744476011511e+01 -3.075747287740980340e+01 -5.775112843573100285e+00
3.568163317099057963e+01 3.913917605084336770e+01 -1.444845345055776953e+01 3.913917605084336770e+01 -9.635987533945390737e+01 4.229556459423785775e+00 -1.444845345055776953e+01 4.229556459423785775e+00 2.434454301238468332e+01
-4.917841465875522289e+01 1.239698650086056375e+01 -1.413646737175662693e+01 1.239698650086056375e+01 -6.292281030117403873e+01 3.996499626196792576e+01 -1.413646737175662693e+01 3.996499626196792576e+01 -5.044730417487541985e+01
-2.781129804272579520e+01 -2.579070449351027960e+01 -6.661343827913595028e+00 -2.579070449351027960e+01 -4.476145688856360039e+01 1.338793401194615740e+01 -6.661343827913595028e+00 1.338793401194615740e+01 -8.298088000132719344e+01
1.434185789851010417e+00 4.472485750403660809e+00 3.131199647006056352e+01 4.472485750403660809e+00 -2.291033335533013826e+01 3.461171790793003566e+01 3.131199647006056352e+01 3.461171790793003566e+01 2.219583455666694149e+01
-1.229736188652731670e+02 -2.109813603061000964e-01 -3.221642114507655918e+01 -2.109813603061000964e-01 -4.759400187507020519e+01 4.592656094027913127e+01 -3.221642114507655918e+01 4.592656094027913127e+01 -6.773184942334950165e+01
-6.491001368655710735e+01 5.271449576943273208e+00 -5.090517453290579475e+00 5.271449576943273208e+00 -4.778157866673490162e+01 1.069402519056391299e+01 -5.090517453290579475e+00 1.069402519056391299e+01 -7.662336844045675832e+01
-1.909790996717016043e+01 4.606913005293429819e+01 -1.287091000863378554e+01 4.606913005293429819e+01 -3.509478053997576552e+01 1.563212779935412966e+00 -1.287091000863378554e+01 1.563212779935412966e+00 -6.751591306469467213e+01
-4.469888599668712459e+01 1.039538940190759497e+01 4.438577931426091361e+00 1.039538940190759497e+01 -6.218431403274401958e+01 1.412187449466196476e+01 4.438577931426091361e+00 1.412187449466196476e+01 -4.090344579399543790e+01
-6.354006217259095024e+01 3.219997332478347829e+01 1.235074277930014830e+01 3.219997332478347829e+01 -5.747818465624011708e+01 -2.759142499175926844e+01 1.235074277930014830e+01 -2.759142499175926844e+01 -4.806850099203560944e+01
-1.214607962227913163e+02 2.310326037296303170e+01 -4.356177070618297620e+01 2.310326037296303170e+01 -8.050104236558121329e+01 9.402125626185375395e+00 -4.356177070618297620e+01 9.402125626185375395e+00 -1.350109021614345295e+02
-9.476266677902030722e+01 -1.831233881712455513e+01 8.354491570491552332e-01 -1.831233881712455513e+01 -5.984754371612550727e+01 1.615875563489203870e+01 8.354491570491552332e-01 1.615875563489203870e+01 -6.129566549143889631e+01
-1.663574630375031660e+01 -2.196593864819871289e+00 2.189469444623615146e+01 -2.196593864819871289e+00 -3.944263334931712706e+01 -2.434728442220131583e+01 2.189469444623615146e+01 -2.434728442220131583e+01 -7.208472178217449766e+01
5.574965179900575407e+01 1.736908965668822802e+01 1.081965535201621265e+01 1.736908965668822802e+01 -2.489761983265111667e+01 1.096163391525492337e+01 1.081965535201621265e+01 1.096163391525492337e+01 -4.949157729181298748e+01
-1.786447306852301864e+01 1.680258261068636116e+01 -1.831501299748150657e+01 1.680258261068636116e+01 -5.145294295388952577e+01 1.738340864612787584e+01 -1.831501299748150657e+01 1.738340864612787584e+01 -1.167589975881681283e+02
-1.347517582710260626e+02 3.233906086620113030e+01 2.770953163776686168e+01 3.233906086620113030e+01 -9.004088367323232944e+01 -2.620563809195883564e+01 2.770953163776686168e+01 -2.620563809195883564e+01 -2.003341858842596324e+01
-9.149764748060476904e+01 3.766235125162483399e+01 -2.967500623599785570e+01 3.766235125162483399e+01 -3.090096570858717229e+01 -6.221537523138901626e+00 -2.967500623599785570e+01 -6.221537523138901626e+00 -3.763064374502239673e+01
-1.262533239612646980e+02 2.758966243812688290e+01 3.621007489231436693e+01 2.758966243812688290e+01 -4.116773355065915041e+01 2.908595458306375003e-01 3.621007489231436693e+01 2.908595458306375003e-01 -4.450257913447416058e+01
-2.552256596469023364e+01 1.561161689957456566e+01 -5.799368725052961970e+00 1.561161689957456566e+01 1.109900047999022199e+01 2.417596556518990170e+01 -5.799368725052961970e+00 2.417596556518990170e+01 1.615088867654786853e+01
4.499617716397386502e+00 -1.012492324144870359e+01 1.469791038900347857e+01 -1.012492324144870359e+01 -4.354080579810165830e+01 1.558466989330274366e+01 1.469791038900347857e+01 1.558466989330274366e+01 -8.531369056016143304e+01
-1.079023892670827109e+02 -1.248666562556563164e+00 3.321423147085618410e+01 -1.248666562556563164e+00 -1.168679547705544337e+02 5.185218788077121665e+00 3.321423147085618410e+01 5.185218788077121665e+00 -5.986420723772873487e+01
-5.978570295387769562e+01 1.317730301362640510e+01 -1.431826221921165043e+01 1.317730301362640510e+01 -7.504992471905800322e+00 -2.403234823333305903e-01 -1.431826221921165043e+01 -2.403234823333305903e-01 3.644999532077022053e+01
-6.872654887286117287e+01 2.052135626069339125e+01 3.251947893581960614e+01 2.052135626069339125e+01 -5.078323561877797232e+01 -1.067347977113358226e+01 3.251947893581960614e+01 -1.067347977113358226e+01 -6.541077080883935935e+01
-6.927210985464733994e+01 -5.096002108670637520e-01 -1.703109028454444118e+00 -5.096002108670637520e-01 -1.049401092918636920e+02 1.235215987923917780e+01 -1.703109028454444118e+00 1.235215987923917780e+01 -3.750042702777504644e+01
-9.726680797673238033e+01 1.472108965346409448e+01 1.697669862632947968e+01 1.472108965346409448e+01 -9.469877174374929041e+01 -7.854007571184256520e+00 1.697669862632947968e+01 -7.854007571184256520e+00 -1.271687860524242240e+02
2.480885899166515784e+01 9.255408608919092117e+00 -6.950238113305489129e+00 9.255408608919092117e+00 -6.338648709945726267e+01 -1.113405010773010417e+01 -6.950238113305489129e+00 -1.113405010773010417e+01 -3.615254060182584084e+01
-8.407684235408926554e+01 -9.181695143461503505e+00 4.108261520056248450e+00 -9.181695143461503505e+00 -8.980231659870321437e+01 -1.257370467431440453e+01 4.108261520056248450e+00 -1.257370467431440453e+01 -1.336593583286460216e+02
-7.791601995566874450e+01 1.472475634247064846e+00 -6.424475487066628077e+00 1.472475634247064846e+00 -2.751142305040685088e+01 2.406411026420119015e+01 -6.424475487066628077e+00 2.406411026420119015e+01 -5.188096187992064756e+01
-3.897520914154468841e+01 -1.694456567526268387e+01 1.609792825353562051e+01 -1.694456567526268387e+01 -1.166894047168037076e+02 2.382412988834006029e+01 1.609792825353562051e+01 2.382412988834006029e+01 -8.332701222183389689e+01
-1.025940638034921903e+02 3.067629835738997723e+00 -3.985978668198143993e+01 3.067629835738997723e+00 -5.424619000606595876e+01 -3.007014249567388120e+01 -3.985978668198143993e+01 -3.007014249567388120e+01 -9.461025711675236494e+01
-7.239867487844207972e+01 2.737159468458113665e+01 1.071241246081297405e+01 2.737159468458113665e+01 -3.130011652187003079e+01 -1.854905725624097945e+00 1.071241246081297405e+01 -1.854905725624097945e+00 -1.024628690411811363e+02
-8.998082375331198079e+01 1.878290512858668748e+01 -3.964942318160876500e+00 1.878290512858668748e+01 -1.305021271647646586e+02 1.076840204135237222e+01 -3.964942318160876500e+00 1.076840204135237222e+01 -7.874961592993277293e+01
-1.049808957234047426e+02 -8.694317409605476499e+00 -2.123623493560207365e+01 -8.694317409605476499e+00 -1.240319554580167676e+02 5.526005775351397631e+01 -2.123623493560207365e+01 5.526005775351397631e+01 -2.733738590708179572e+01