1.023902700000000010e+01 9.350737000000000521e+00 5.326356999999999786e+00 1.249372699999999980e+01 3.232636999999999983e+00 1.515646999999999966e+00 7.542887000000000342e+00 6.298506999999999856e+00 6.272857000000000127e+00 1.483272700000000022e+01 1.480502700000000083e+01 1.093492700000000006e+01 2.356886999999999954e+00 1.774186999999999959e+00 3.516007000000000104e+00 1.000722700000000032e+01 6.230317000000000327e+00 1.437002700000000033e+01 2.240636999999999990e+00 9.983126999999999640e+00 2.875889999999999835e-01 4.676256999999999664e+00 6.492976999999999776e+00 9.340346999999999511e+00 2.141767000000000198e+00 1.229992700000000028e+01 1.300312699999999921e+01 2.594297000000000075e+00 3.747210000000000263e-01 9.884226999999999208e+00 1.254947000000000035e+00 1.194032699999999991e+01 6.838897000000000226e+00 2.922026999999999930e+00 3.628146999999999789e+00 5.191497000000000028e+00 1.330902700000000038e+01 1.031132700000000035e+01 5.340086999999999584e+00 2.202396999999999938e+00 1.952976999999999963e+00 1.184952700000000014e+01 1.087302700000000044e+01 5.312930000000000152e-01 1.330202700000000071e+01 5.245267000000000124e+00 1.520342699999999958e+01 1.474492700000000056e+01 6.101696999999999704e+00 4.261127000000000109e+00 9.201847000000000776e+00 4.791387000000000285e+00 9.286676999999999182e+00 6.206896999999999665e+00 1.406262700000000088e+01 6.958556999999999881e+00 1.146422699999999928e+01 1.046962699999999913e+01 1.127692700000000059e+01 1.275752699999999962e+01 7.724236999999999576e+00 1.273882700000000057e+01 2.169850000000000112e-01 3.668346999999999802e+00 7.512527000000000399e+00 1.381642699999999913e+01 5.796086999999999989e+00 7.767566999999999666e+00 1.529972700000000074e+01 3.538637000000000032e+00 7.954966999999999899e+00 1.116242699999999921e+01 7.191880000000000495e-01 1.023072699999999990e+01 8.794926999999999495e+00 1.420422699999999949e+01 1.009837000000000096e+00 1.240142699999999998e+01 1.446797000000000111e+00 1.364532699999999998e+01 2.441637000000000057e+00 1.345712699999999984e+01 1.144882699999999964e+01 3.177046999999999954e+00 1.263152700000000017e+01 1.338852699999999984e+01 6.315087000000000117e+00 3.245460000000000012e-01 5.599066999999999794e+00 1.056532699999999991e+01 7.760146999999999906e+00 7.034540000000000237e-01 3.023867000000000083e+00 5.246347000000000094e+00 1.153402700000000003e+01 2.507286999999999821e+00 9.490396999999999750e+00 6.778916999999999859e+00 2.855367000000000210e+00 1.314342700000000086e+01 1.284917000000000087e+00 1.028382700000000050e+01 9.654026999999999248e+00 5.834006999999999721e+00 7.615717000000000070e+00 2.005266999999999911e+00 5.867066999999999588e+00 1.424422700000000042e+01 8.037186999999999415e+00 1.444732699999999959e+01 4.845146999999999871e+00 1.515232699999999966e+01 9.376417000000000002e+00 1.530692699999999995e+01 1.456972700000000032e+01 1.350212699999999977e+01 2.502546999999999855e+00 4.780276999999999887e+00 1.385522699999999929e+01 1.403656999999999933e+00 1.474672699999999992e+01 1.122916999999999943e+00 1.480122700000000080e+01 5.493656999999999790e+00 7.286636999999999809e+00 7.129487000000000130e+00 1.483712700000000062e+01 3.943277000000000143e+00 2.428926999999999836e+00 1.192162700000000086e+01 7.253606999999999694e+00 1.263642699999999941e+01 1.170192699999999952e+01 1.520647000000000082e+00 3.690707000000000182e+00 5.832246999999999737e+00 9.022346999999999895e+00 2.135006999999999877e+00 1.476412700000000022e+01 4.840336999999999890e+00 8.153347000000000122e+00 6.243466999999999878e+00 2.381426999999999961e+00 7.308747000000000327e+00 8.780207000000000761e+00 4.379026999999999781e+00 2.154007000000000005e+00 3.010826999999999920e+00 9.667457000000000633e+00 9.542367000000000488e+00 5.392256999999999856e+00 3.110466999999999871e+00 5.010867000000000182e+00 7.345686999999999856e+00 7.648686999999999792e+00 3.805916999999999994e+00 2.189477000000000118e+00 1.112416999999999989e+00 7.361966999999999928e+00 6.952816999999999581e+00 1.202212699999999934e+01 4.349586999999999648e+00 1.401102700000000034e+01 5.340479999999999672e-01 5.515376999999999974e+00 1.513332699999999953e+01 2.125347000000000097e+00 3.889126999999999779e+00 7.953746999999999900e+00 7.488936999999999955e+00 1.379832700000000045e+01 1.237192699999999945e+01 2.034920000000000062e-01 1.540122700000000044e+01 5.224326999999999721e+00 1.369722699999999982e+01 7.260837000000000430e+00 9.307506999999999309e+00 5.666157000000000110e+00 1.005312699999999992e+01 8.530436999999999159e+00 3.534626999999999963e+00 1.041112700000000046e+01 3.053946999999999967e+00 2.901610000000000023e-01 1.397562699999999936e+01 8.602256999999999820e+00 1.513652699999999918e+01 8.136870000000000491e-01 6.025267000000000372e+00 1.196952699999999936e+01 1.375462699999999927e+01 2.733896999999999800e+00 1.058642700000000048e+01 5.181167000000000300e+00 8.696517000000000053e+00 1.738607000000000014e+00 1.226432699999999976e+01 1.483059999999999934e-01 1.047932699999999961e+01 1.308242699999999914e+01 1.501382699999999915e+01 1.386872699999999980e+01 6.006306999999999618e+00 1.425167000000000073e+00 1.491502700000000026e+01 1.065320000000000017e-01 1.073802700000000065e+01 1.071352699999999913e+01 9.197537000000000518e+00 9.886627000000000720e+00 9.792426999999999992e+00 1.094962699999999955e+01 1.861366999999999994e+00 1.378472700000000017e+01 1.068562700000000021e+01 5.903966999999999743e+00 1.127102700000000013e+01 7.639687000000000339e+00 7.139997000000000149e+00 1.598769999999999913e-01 7.997316999999999787e+00 4.179776999999999632e+00 1.539742700000000042e+01 3.502616999999999869e+00 9.444706999999999297e+00 1.110852700000000048e+01 1.042877000000000054e+00 1.129352699999999921e+01 9.577267000000000863e+00 4.059200000000000030e-01 3.662307000000000201e+00 1.510242700000000049e+01 6.004057000000000421e+00 1.183412700000000051e+01 9.379137000000000057e+00 1.361202699999999943e+01 1.101132699999999964e+01 1.102972699999999939e+01 3.260266999999999804e+00 8.673097000000000278e+00 7.818907000000000274e+00 1.147732700000000072e+01 9.792469999999999786e-01 3.269177000000000000e+00 6.898946999999999719e+00 2.171276999999999902e+00 1.106722700000000081e+01 2.816886999999999919e+00 1.234162700000000079e+01 5.645476999999999634e+00 6.930926999999999616e+00 6.118947000000000358e+00 1.281682699999999997e+01 1.142282699999999984e+01 8.347317000000000320e+00 1.414362700000000039e+01 1.105302700000000016e+01 1.237322699999999998e+01 1.503032699999999977e+01 2.274807000000000023e+00 7.736237000000000030e+00 8.313669999999999671e-01 1.443392700000000062e+01 1.140292700000000004e+01 1.693346999999999936e+00 8.556936999999999571e+00 1.403262699999999974e+01 7.622917000000000165e+00 1.292477000000000098e+00 9.583847000000000449e+00 1.534052699999999980e+01 9.137866999999999962e+00 1.052292699999999925e+01 4.243146999999999558e+00 5.006110000000000282e-01 6.795886999999999567e+00 2.822407000000000110e+00 3.064706999999999848e+00 1.008212699999999984e+01 1.355242699999999978e+01 6.169826999999999728e+00 1.167792700000000039e+01 1.543217000000000061e+00 6.046767000000000003e+00 8.918347000000000691e+00 1.166982699999999973e+01 7.835407000000000011e+00 1.161772700000000036e+01 7.680266999999999733e+00 2.131286999999999932e+00 3.912977000000000150e+00 1.092422700000000013e+01 1.435692700000000066e+01 5.270907000000000231e+00 1.112912700000000044e+01 9.864027000000000100e+00 1.258622699999999917e+01 1.189292700000000025e+01 7.505106999999999751e+00 2.108347000000000193e+00 4.650276999999999994e+00 1.191292699999999982e+01 1.225652700000000017e+01 7.876046999999999798e+00 5.718187000000000353e+00 2.106200000000000017e-01 5.654086999999999641e+00 8.478569999999999718e-01 1.017222699999999946e+01 1.377412700000000001e+01 1.241932699999999912e+01 8.347656999999999883e+00 1.052972699999999939e+01 5.883556999999999704e+00 1.479662700000000086e+01 9.325246999999999176e+00 1.085362699999999947e+01 1.333062699999999978e+01 1.853216999999999892e+00 1.152392700000000048e+01 2.201456999999999997e+00 1.336392700000000033e+01 1.200752699999999962e+01 6.006409999999999805e-01 6.181980000000000253e-01 1.530302700000000016e+01 2.373717000000000077e+00 1.071682700000000033e+01 1.534167000000000058e+00 1.276002699999999912e+01 1.353042699999999954e+01 7.586166999999999661e+00 3.763217000000000034e+00 9.792726999999999293e+00 5.374776999999999916e+00 9.699769999999999781e-01 1.790456999999999965e+00 7.100526999999999589e+00 6.391897000000000162e+00 1.427282699999999949e+01 7.805557000000000301e+00 9.396437000000000594e+00 1.048362700000000025e+01 1.212112699999999954e+01 1.041152699999999953e+01 1.249292699999999989e+01 1.207372699999999988e+01 1.085122699999999973e+01 5.158746999999999971e+00 7.435846999999999873e+00 4.325337000000000209e+00 4.865369999999999973e-01 1.420552700000000002e+01 1.295082700000000031e+01 7.247727000000000253e+00 2.209356999999999793e+00 2.130917000000000172e+00 3.787077000000000027e+00 6.328496999999999595e+00 6.348686999999999969e+00 1.241816999999999949e+00 8.034936999999999330e+00 1.002342699999999986e+01 1.516756999999999911e+00 1.280212700000000048e+01 3.010587000000000124e+00 9.112987000000000393e+00 1.079962699999999920e+01 2.666596999999999884e+00 1.436972699999999925e+01 9.707307000000000130e+00 2.377937000000000189e+00 5.199017000000000444e+00 1.309302699999999930e+01 1.287492699999999957e+01 1.105062700000000042e+01 6.355267000000000444e+00 1.746156999999999959e+00 1.448912699999999987e+01 1.350166999999999895e+00 6.418186999999999642e+00 2.549757000000000051e+00 5.964476999999999585e+00 9.874427000000000731e+00 1.114212700000000034e+01 2.408676999999999957e+00 1.195582699999999932e+01 8.631007000000000318e+00 1.245322700000000005e+01 9.337056999999999718e+00 1.439362700000000039e+01 1.021282700000000077e+01 1.026612699999999911e+01 1.048772699999999958e+01 1.541382699999999950e+01 8.627966999999999942e+00 7.946166999999999980e+00 3.237327000000000066e+00 1.956407000000000007e+00 9.508936999999999529e+00 8.780537000000000702e+00 1.511312700000000042e+01 1.535622700000000052e+01 5.904056999999999888e+00 5.519317000000000029e+00 8.130727000000000260e+00 1.153796999999999962e+00 1.083212699999999984e+01 1.035482700000000023e+01 4.484386999999999901e+00 1.067747000000000002e+00 1.147852699999999970e+01 1.265572700000000061e+01 5.661496999999999780e+00 2.941497000000000028e+00 3.661926999999999932e+00 1.131712699999999927e+01 4.450850000000000084e-01 1.460112699999999997e+01 8.008006999999999209e+00 8.244486999999999455e+00 1.265302699999999980e+01 6.597577000000000247e+00 1.526792700000000025e+01 1.465442700000000009e+01 7.854906999999999861e+00 1.131232699999999980e+01 7.019377000000000422e+00 5.064436999999999856e+00 7.231876999999999889e+00 1.429242699999999999e+01 2.760536999999999797e+00 6.947486999999999746e+00 1.470092700000000008e+01 6.251127000000000322e+00 1.149252700000000083e+01 8.944146999999999181e+00 3.815299999999999803e-01 4.719496999999999609e+00 1.797527000000000097e+00 5.162427000000000099e+00 5.135386999999999702e+00 9.515677000000000163e+00 1.502302700000000080e+01 6.095356999999999914e+00 1.163122700000000087e+01 1.128427000000000069e+00 9.241436999999999458e+00 1.538412699999999944e+01 1.388222700000000032e+01 1.543432699999999969e+01 1.012902700000000067e+01 2.938370000000000148e-01 1.386552700000000016e+01 3.116457000000000033e+00 4.974160000000000248e-01 1.127382700000000071e+01 7.818286999999999765e+00 7.747669999999999835e-01 1.325902699999999967e+01 6.282807000000000031e+00 9.343169999999999531e-01 5.349306999999999590e+00 1.510592699999999944e+01 8.714976999999999308e+00 1.531450000000000033e-01 2.226697000000000148e+00 1.124022700000000086e+01 2.205026999999999848e+00 7.302137000000000100e+00 9.155969999999999942e-01 1.456636999999999960e+00 3.651696999999999971e+00 1.084352699999999992e+01 6.837126999999999732e+00 2.945997000000000199e+00 4.685686999999999713e+00 7.511326999999999643e+00 8.272406999999999400e+00 2.431906999999999819e+00 1.472342699999999915e+01 1.463432700000000075e+01 5.879857000000000333e+00 3.503407000000000160e+00 8.066706999999999184e+00 2.501487000000000016e+00 1.234866999999999937e+00 1.302182700000000004e+01 2.258567000000000213e+00 1.247782699999999956e+01 2.915386999999999951e+00 7.339767000000000152e+00 1.334572700000000012e+01 4.380596999999999852e+00 3.541917000000000204e+00 7.893067000000000277e+00 1.256962700000000055e+01 2.561936999999999909e+00 3.109477000000000046e+00 3.982616999999999852e+00 1.350942700000000052e+01 5.141886999999999652e+00 7.588337000000000110e+00 1.171192699999999931e+01 3.505847000000000158e+00 4.108609999999999762e-01 6.651856999999999687e+00 6.653647000000000311e+00 7.224396999999999736e+00 2.291586999999999819e+00 1.136002700000000054e+01 6.258117000000000374e+00 1.095502699999999940e+01 8.180977000000000388e+00 5.535967000000000304e+00 8.720537000000000205e+00 6.466507000000000005e+00 1.400962700000000005e+01 5.035556999999999839e+00 7.966906999999999961e+00 6.060586999999999946e+00 1.375542699999999918e+01 3.694887000000000032e+00 1.504067000000000043e+00 7.619926999999999673e+00 1.942659999999999942e-01 4.372117000000000253e+00 1.065620000000000039e-01 4.305316999999999616e+00 7.106976999999999656e+00 1.138112699999999933e+01 1.322082699999999988e+01 5.579006999999999827e+00 9.058657000000000181e+00 9.380437000000000580e+00 5.812527000000000221e+00 4.231476999999999933e+00 3.911947000000000063e+00 5.376247000000000220e+00 1.354572699999999941e+01 1.433132699999999993e+01 2.410067000000000181e+00 1.644066999999999945e+00 5.333606999999999765e+00 1.081252699999999933e+01 9.770027000000000683e+00 1.279722699999999946e+01 7.326037000000000354e+00 4.143576999999999622e+00 1.039712699999999934e+01 9.423716999999999899e+00 1.148432700000000040e+01 9.037957000000000463e+00 1.695597000000000021e+00 9.181397000000000475e+00 1.423282700000000034e+01 5.519326999999999650e+00 1.395322700000000005e+01 1.065542699999999954e+01 4.157547000000000104e+00 1.176662699999999973e+01 1.469280000000000030e-01 3.500716999999999857e+00 1.073242699999999950e+01 3.625369999999999981e-01 8.842987000000000819e+00 1.204802699999999938e+01 1.094662699999999944e+01 8.447946999999999207e+00 3.768027000000000015e+00 6.695986999999999689e+00 1.046782699999999977e+01 1.272832700000000017e+01 6.167510000000000492e-01 6.504876999999999576e+00 4.445136999999999894e+00 1.506692699999999974e+01 4.839107000000000269e+00 8.629006999999999650e+00 2.208436999999999983e+00 1.092102700000000048e+01 8.410857000000000028e+00 1.391572700000000040e+01 5.431190000000000184e-01 1.376302699999999923e+01 1.342162700000000086e+01 5.553436999999999735e+00 1.414812700000000056e+01 8.151887000000000327e+00 1.071752700000000047e+01 1.217432699999999990e+01 1.152072700000000083e+01 3.032817000000000096e+00 5.185977000000000281e+00 1.232252699999999912e+01 7.082696999999999576e+00 2.849566999999999961e+00 9.422669999999999657e-01 8.583377000000000479e+00 5.981996999999999787e+00 1.305522700000000036e+01 1.278302700000000058e+01 1.475272700000000015e+01 3.619517000000000095e+00 3.684517000000000042e+00 1.918436999999999948e+00 1.048886999999999903e+00 1.084122699999999995e+01 8.457076999999999956e+00 7.058000000000000385e-02 8.332157000000000480e+00 1.439602700000000013e+01 1.738636999999999988e+00 1.372232699999999994e+01 3.004887000000000086e+00 1.195382700000000042e+01 1.391972699999999996e+01 1.086572699999999969e+01 6.511997000000000035e+00 1.328382700000000050e+01 7.567506999999999984e+00 1.536426999999999987e+00 1.326542700000000075e+01 7.160626999999999853e+00 1.209042700000000004e+01 1.459302699999999930e+01 1.231862699999999933e+01 2.010167000000000037e+00 9.549146999999999608e+00 8.866227000000000302e+00 5.573396999999999935e+00 2.653417000000000137e+00 9.722526999999999475e+00 6.508646999999999849e+00 9.096317000000000874e+00 1.512462700000000027e+01 6.927736999999999590e+00 9.901969999999999938e-01 6.163866999999999763e+00 8.429757000000000389e+00 3.338226999999999833e+00 8.750227000000000643e+00 5.931667000000000023e+00 6.692156999999999911e+00 1.496062700000000056e+01 9.991426999999999836e+00 1.204152700000000031e+01 3.306926999999999950e+00 9.612169999999999881e-01 3.047787000000000024e+00 1.192672699999999963e+01 8.953426999999999580e+00 1.486132699999999929e+01 1.099622699999999931e+01 1.469422699999999971e+01 1.283052700000000002e+01 5.584286999999999779e+00 1.038602700000000034e+01 1.814376999999999907e+00 1.193482700000000030e+01 2.535416999999999810e+00 2.706946999999999992e+00 8.821956999999999383e+00 6.473596999999999824e+00 1.119962699999999955e+01 7.332957000000000392e+00 7.918717000000000006e+00 1.497692699999999988e+01 5.170307000000000208e+00 1.105022699999999958e+01 1.402202699999999957e+01 9.078106999999999260e+00 8.736587000000000103e+00 1.048472699999999946e+01 4.639066999999999830e+00 1.239822700000000033e+01 1.570677000000000101e+00 1.322902700000000031e+01 8.897356999999999516e+00 5.331356999999999680e+00 7.677216999999999736e+00 3.852276999999999951e+00 2.743066999999999922e+00 7.198796999999999890e+00 6.828367000000000075e+00 4.962856999999999630e+00 8.072506999999999877e+00 1.107082699999999953e+01 4.600187000000000026e+00 5.027646999999999977e+00 1.423682699999999990e+01 1.432799999999999907e-01 1.438502699999999912e+01 1.215932699999999933e+01 2.326656999999999975e+00 1.375572700000000026e+01 3.323969999999999980e-01 4.139600000000000224e-02 1.282762699999999967e+01 6.518887000000000320e+00 1.201442699999999952e+01 4.150527000000000299e+00 1.457852699999999935e+01 7.170797000000000310e+00 1.520702700000000007e+01 5.225456999999999574e+00 9.373597000000000179e+00 5.673657000000000394e+00 9.985927000000000220e+00 7.062087000000000003e+00 7.299606999999999957e+00 3.824977000000000071e+00 9.893727000000000160e+00 4.682446999999999804e+00 1.461742699999999928e+01 2.513746999999999954e+00 1.178802699999999959e+01 1.506162699999999965e+01 1.080216999999999983e+00 2.412606999999999946e+00 1.745009999999999895e-01 6.245326999999999629e+00 1.100162699999999916e+01 1.857747000000000037e+00 4.934346999999999817e+00 1.254082700000000017e+01 6.570096999999999632e+00 5.973806999999999867e+00 8.768986999999999199e+00 8.042270000000000252e-01 1.544312700000000049e+01 1.521732699999999916e+01 1.017782700000000062e+01 9.730976999999999322e+00 3.854290000000000216e-01 1.400272700000000015e+01 1.052802699999999980e+01 1.408792700000000053e+01 1.453376999999999919e+00 4.470347000000000293e+00 7.054516999999999705e+00 1.348352700000000048e+01 1.061532700000000062e+01 1.034052699999999980e+01 5.656677000000000177e+00 1.426920000000000133e-01 2.214196999999999971e+00 3.249077000000000215e+00 1.182762699999999967e+01 9.432157000000000124e+00 1.110462700000000069e+01 8.979316999999999993e+00 6.758777000000000257e+00 1.422387000000000068e+00 2.558536999999999839e+00 8.701456999999999553e+00 1.431232699999999980e+01 1.231522700000000015e+01 2.131566999999999990e+00 1.035742699999999950e+01 4.031587000000000032e+00 1.488732700000000087e+01 1.530922699999999992e+01 1.227652699999999975e+01 1.497002699999999997e+01 1.030702699999999972e+01 1.434612699999999919e+01 1.102132699999999943e+01 9.975127000000000521e+00 1.035822699999999941e+01 1.136352699999999949e+01 1.072812700000000063e+01 1.350372699999999959e+01 5.643557000000000379e+00 1.152522699999999922e+01 3.809496999999999911e+00 9.431936999999999571e+00 3.704626999999999892e+00 1.308446999999999916e+00 1.425762699999999938e+01 8.776327000000000211e+00 4.850869999999999904e-01 9.587766999999999484e+00 4.369196999999999775e+00 1.020702700000000007e+01 3.370607000000000131e+00 9.668957000000000690e+00 1.493762700000000088e+01 8.244476999999999833e+00 1.163802699999999923e+01 1.121367000000000003e+00 5.169516999999999918e+00 1.210462700000000069e+01 1.077322700000000033e+01