-7.787132684554875595e+04
-7.787091601524202270e+04
-7.787199344675661996e+04
-7.787015168652131979e+04
-7.787015702983496885e+04
-7.786555373160247109e+04
-7.787091752484018798e+04
-7.786279117487280746e+04
-7.786152824737873743e+04
-7.787013481688767206e+04
-7.786989668103057193e+04
-7.786649309030838776e+04
-7.786713308269006666e+04
-7.786290237946248089e+04
-7.787397681756671227e+04
-7.786630774656565336e+04
-7.786756620071668294e+04
-7.786545777034110506e+04
-7.786429309340225882e+04
-7.786887588776453049e+04
-7.786877029985266563e+04
-7.787149514856177848e+04
-7.786915421514588525e+04
-7.786688527449718094e+04
-7.786553264674350794e+04
-7.786781784311577212e+04
-7.786844442491096561e+04
-7.787038373290862364e+04
-7.786708514380358974e+04
-7.786961182639698382e+04
-7.786683449481199204e+04
-7.786197285867149185e+04
-7.787151182236983732e+04
-7.786684390965856437e+04
-7.787054591897406499e+04
-7.786748945604072651e+04
-7.787020275589771336e+04
-7.786053929645175231e+04
-7.786962833402509568e+04
-7.786790072777026216e+04
-7.787041416529106209e+04
-7.786470386819099076e+04
-7.787264212836990191e+04
-7.787085535883807461e+04
-7.786999288102399441e+04
-7.786818190657303785e+04
-7.787406828916724771e+04
-7.786569422482427035e+04
-7.786376906578360649e+04
-7.786478580360920751e+04
-7.787049757507802860e+04
-7.787072981215007894e+04
-7.786906769775212160e+04
-7.786714681733460748e+04
-7.786481916026477120e+04
-7.786893572424459853e+04
-7.786833076997677563e+04
-7.787266639876234694e+04
-7.786864466828614241e+04
-7.787316592551248323e+04
-7.786335910159960622e+04
-7.786679392746878148e+04
-7.786891939593320421e+04
-7.786581810124334879e+04
-7.787189976553607266e+04
-7.786424417045115842e+04
-7.786478728440815757e+04
-7.787184177586570149e+04
-7.786400387986178976e+04
-7.787347889466404740e+04
-7.786825758669682546e+04
-7.786856206442201801e+04
-7.786848588049740647e+04
-7.786961927330326580e+04
-7.786796733637124998e+04
-7.786618908649987134e+04
-7.786502880651343730e+04
-7.786237694779878075e+04
-7.787335987357438717e+04
-7.786754836112548946e+04
-7.786487059852387756e+04
-7.787005524763469293e+04
-7.786798658732436888e+04
-7.786808329049384338e+04
-7.787386076411370595e+04
-7.786733930266249808e+04
-7.786926423584720760e+04
-7.787314471640509146e+04
-7.786512292736826930e+04
-7.786737574785292963e+04
-7.787103063753756578e+04
-7.786686493717132544e+04
-7.786788219711874262e+04
-7.787213734636081790e+04
-7.786697615874516487e+04
-7.787106621124384401e+04
-7.786734856180148199e+04
-7.786954659457183152e+04
-7.787170377946480585e+04
-7.786692900511430344e+04
-7.787358514539674798e+04
-7.786443942258736934e+04
-7.786391976734876516e+04
-7.785912094692373648e+04
-7.787059165721178579e+04
-7.786983507420560636e+04
-7.786508722079219297e+04
-7.786915277676485130e+04
-7.786488257228782459e+04
-7.786251593185715319e+04
-7.786656625044348766e+04
-7.787179797684072400e+04
-7.787073276590344904e+04
-7.787034183399117319e+04
-7.786942586145691166e+04
-7.786332103707447823e+04
-7.787270872132437944e+04
-7.787077424866019282e+04
-7.787076960676941962e+04
-7.786472914310308988e+04
-7.786848998988961102e+04
-7.786518874450720614e+04
-7.786813143705326365e+04
-7.786727015616948484e+04
-7.786857772972248495e+04
-7.786665310129441787e+04
-7.786524642878011218e+04
-7.787204814824125788e+04
-7.787379976805919432e+04
-7.786972718003643968e+04
-7.786268227088035201e+04
-7.786323241227422841e+04
-7.786482605972379679e+04
-7.787036918237044301e+04
-7.787218265279517800e+04
-7.786480158149419003e+04
-7.786525917763712641e+04
-7.786416692121542292e+04
-7.786502090836083516e+04
-7.786496776878558740e+04
-7.786998084323701914e+04
-7.786512020449544070e+04
-7.786672934612158861e+04
-7.787007615031285968e+04
-7.786846160999560379e+04
-7.786575011451210594e+04
-7.786087956814767676e+04
-7.786986574053874938e+04
-7.786917428290576208e+04
-7.786665299821198278e+04
-7.786689580942595785e+04
-7.786788620200869627e+04
-7.786477952497430670e+04
-7.786508320865250425e+04
-7.786622589796126704e+04
-7.786292053724100697e+04
-7.786631164489239745e+04
-7.786697619330702582e+04
-7.787053062889288412e+04
-7.786218548647816351e+04
-7.786942537960551272e+04
-7.786986675400332024e+04
-7.786299022513750242e+04
-7.786693560365209123e+04
-7.786973399960831739e+04
-7.786790009252185700e+04
-7.786646094977331813e+04
-7.786844734428740048e+04
-7.786928738787549082e+04
-7.787204488856978423e+04
-7.787321505661621632e+04
-7.786945993237532093e+04
-7.786633070582253276e+04
-7.787151497090392513e+04
-7.786850856824965740e+04
-7.786667067233921262e+04
-7.786835778849558847e+04
-7.786537583470378013e+04
-7.786998197526736476e+04
-7.786292405491616228e+04
