5.359666557224580075e+00 2.604543144296152524e-01 -4.211650388871311712e+00 -9.703277284094987687e-01 -1.570785267213256065e+00 2.955500297484101146e+00 -9.139254336980907611e-01 3.596051622299149653e+00 -2.887358858988522847e+00 3.677490293223431572e-01 1.317638542792701539e+00 -2.092944994974185735e-01 -2.997615999188562252e+00 2.478449549975429100e+00 1.756742375607218687e+00 1.162760931981430129e-01 2.677973856652346440e-01 -2.420615150684805261e+00 -7.109795026512992777e-01 -1.812871104919652865e+00 2.240316012375263011e+00 -1.908908500800463592e+00 -3.060163230963390824e-01 1.176439201930132850e+00 -2.361323964222577398e+00 1.561400225678152009e-01 -3.933162355377748831e+00 -1.106782355106026738e+00 -9.513169900635012333e-01 -4.185308406365214395e+00 -2.566834313774413179e+00 1.131835186380492742e+00 -8.233022673018624005e-01 -5.462026296301604189e-01 -8.014669147893901391e-01 8.512203361761094822e-01 2.311077405208760427e-01 -2.752020605376905849e+00 -1.535559608329948311e+00 1.037425813155982812e+00 -3.337610481811233321e+00 2.762572927843722770e+00 -2.109580548023451740e+00 2.098431729573909527e-02 1.086022752245159539e+00 3.728061325483024380e+00 3.434474744537062696e-01 3.658484697084181669e-01 2.536700982233286439e+00 -3.164524831127268900e+00 -1.177290751367540800e+00 -5.768280703570359824e-01 2.566972639135924439e+00 -6.232107752206819118e-01 -3.797661608032906866e+00 1.598895654619864493e+00 -8.300498709961058597e-02 -3.545728958625467886e+00 -5.256929380172279398e-01 -4.539552972326924341e+00 2.698050060236453440e+00 -3.445576254684526774e+00 4.227289896473561126e-01 3.120950285368505384e+00 -1.855286597277500560e+00 2.064976018253136925e+00 3.793172461542223761e+00 7.754746023421316137e-01 -3.099953626776572047e-01 -6.044468627985705167e-01 -2.747379249566492820e+00 1.721121281025018046e+00 1.283685065858758190e+00 1.573934868846180946e+00 -1.697567403017487209e+00 -9.986972830361878772e-01 4.306837777976738835e+00 2.126397106750234745e+00 1.552365368422561342e+00 -2.355609944084608109e+00 7.008776374955751065e-02 3.671486252624895918e+00 5.644116979442022064e-01 -1.146017906811138409e-01 -2.056399331618760762e+00 1.465530979957988755e+00 -6.129952158737675738e+00 7.321977903540557442e-01 -9.363732230342060037e-01 1.104679706766919928e-01 9.441441258712284235e-01 -3.464136535719432253e+00 1.085960531543513019e+00 6.238473804160388214e-01 -7.078206450462286581e-01 -2.103142505175416233e+00 -2.889008993133837855e+00 9.456749608199985779e-01 1.466042115308703320e+00 1.979435409006269131e+00 -2.850292804310237127e+00 1.985065096953576802e+00 4.838675138836712186e+00 5.090471005544663363e-01 4.041849065637061145e+00 -1.393252636133939681e+00 -1.650694645850791786e-01 2.191399742247058580e+00 -3.200098103186716642e-02 -9.590601249840864373e-01 -1.463346056310919741e+00 6.007196370816839881e+00 2.667266753762425058e+00 -2.231446219956271459e+00 -7.261613538530098388e-01 -8.094224228486525119e-01 1.498134627620678394e+00 -7.411771117767718131e-01 -2.667201961957405221e+00 6.970220108762001932e-01 1.603424396102504534e+00 -5.455740976993972424e+00 3.040638786163304630e+00 -1.746829229439132769e+00 1.670675718610067806e+00 8.008632197172179668e-01 -6.798053884644514877e-01 2.120946881818419172e+00 -3.731985857672817986e+00 -2.637199756688342500e+00 -1.237631462226960632e+00 9.429434205956561676e-01 -1.273081321324464943e+00 3.722608015227160116e-01 -1.284712478766935284e+00 -2.385166320028650477e-01 9.094810244061117821e-01 -2.265270627500849399e-01 -1.046228756887254807e+00 3.263804902583136713e-01 -2.815101083991464748e+00 -5.155674187104646311e-01 1.966763983138752669e+00 1.838254580087991696e+00 -3.208360086768137887e+00 -7.612008648520530996e-02 2.418230195195253618e+00 2.066281110325686399e+00 6.396354977932952046e-01 1.981821907157844898e+00 1.527605642932710339e-01 1.083396113038468611e+00 7.532098755662320899e-01 -1.092315784862912142e+00 1.262393758820185452e+00 2.195614294897417773e-01 -1.224738407248621597e+00 -2.793313554001745302e+00 -3.827642730254303682e-01 7.393855669458966329e-01 -5.098765385028596331e-01 -1.198832998095398006e+00 -2.025707556424840572e+00 1.465712499856180129e+00 1.977738480779549946e+00 1.121852106200639021e+00 8.142015897999022034e-01 4.826963762968979332e-01 -2.038993475998698734e+00 3.251654382259155707e+00 1.188894655114248522e+00 -3.162251461524141077e-02 -6.956536696606551162e-01 1.269553767495589236e+00 1.758219731605813685e+00 1.243943521009679642e+00 1.789247807121028710e+00 2.713748188995625532e-01 5.175558586377065673e+00 2.411738673397042287e+00 -1.546580385831474835e+00 -1.425630026699733488e+00 -4.515793406049487535e-01 -3.032377831023232773e+00 2.005594328952150285e+00 -2.956021203027636712e+00 7.169979414287285246e-01 5.682145141002790112e+00 4.058283044181819399e+00 3.522686215968651613e+00 5.428054307423369806e+00 -7.740070165363572841e-01 -4.647269348172958225e-02 7.571529197003167289e-01 2.659396092114498789e+00 7.892048085789854506e-01 -5.433975558493268909e-02 1.401473482061379894e+00 5.494237079368775589e-01 2.953584311249933592e+00 1.420682195367161560e+00 9.957384572736001083e-01 2.038470513572464782e+00 -4.493563646279472024e-01 1.406126150726637880e-01 3.593201297098937097e+00 -1.564830077578822920e-01 4.055157096699933739e+00 5.966697893134510489e-01 -1.397019302576580635e-01 -5.801524041752454508e+00 -1.408641204046905182e+00 4.306268021469100482e+00 -2.509924483257013783e+00 7.123072204335381130e-01 3.014342055076586036e+00 -1.671595145176544284e+00 -5.782488620814068003e-01 -1.123459560029948845e+00 -1.260805845376516521e+00 -4.548246387054471818e+00 5.085323656590283736e-01 -5.557537644432132273e-01 -4.426966926690882320e-01 -7.218989786798972463e-02 2.566087665354657155e+00 -1.211373811911524490e+00 2.435979550226056833e+00 -2.991227835745977615e+00 6.195891190083242517e-01 1.621682315380648776e+00 7.787717853087136599e-02 -5.009326983067021732e-01 1.309236176967069953e+00 -1.749982430616780826e+00 2.492298026967478819e+00 -2.529488523049056692e+00 -5.465467975277795709e+00 -2.309720376848059864e+00 5.120753461081472002e-01 -6.688308908236539896e-01 -2.821965929999553646e-01 -1.021760080299320084e+00 1.358639414074275242e+00 -1.221589319836371423e+00 -2.208433816319266274e-01 3.058173196952056888e-02 2.284263368123230276e+00 1.034693244490290764e+00 -9.102914361895386719e-01 -1.614200918783518235e+00 2.848201983046650287e+00 1.160029391757087636e+00 2.345258681901623454e+00 -3.681593774208042347e-01 -3.845873910057360234e+00 -2.396844271552524219e+00 -7.431265223547993681e-01 5.293788718139309513e-01 -6.603750460478470252e-01 2.720159492368573684e+00 -1.821314608399265733e+00 -2.340342732250886737e+00 6.719902626493995390e-01 -3.286538598614420492e-02 -3.073848700001540202e+00 -1.091081141022805623e+00 -7.504752500178411001e-01 8.461866299908517020e-01 4.932003620202869421e-01 -4.351956014201141976e+00 -2.879541162070096583e+00 9.049887925913800979e-01 -6.652226043488402851e-01 7.602716680927559256e-01 1.653891041565120235e+00 2.951434354608748478e+00 -1.634576398800337449e+00 -3.903295390146148236e+00 2.022724048069864278e+00 -3.574319628142304861e+00 4.702789754427146862e-01 5.731318521468377059e-01 -5.923004562399876161e-01 4.466217390795562459e+00 2.508983459422197360e+00 3.811133161270353842e+00 -1.227186097660494468e+00 2.133873875361292249e+00 1.124058112895373274e+00 1.673177402192790986e+00 -3.738599249770947708e+00 -1.219007417828384732e+00 3.366859868012441609e-02 -1.207882253529881877e+00 1.464783303096883094e+00 -2.954579328255600323e+00 -1.173248462643226908e+00 -2.648123860703013754e+00 1.077015662906006144e+00 -5.033675332017062409e-01 -1.681415217402498552e+00 -1.721441126284721235e-01 1.299095745260738344e+00 2.761622133816085789e+00 -1.787913918690692716e+00 2.253252261890282160e+00 5.014515469675382420e-01 -1.952523155771858976e+00 -3.757389387447472195e+00 6.376104967760776177e-01 -1.075036427528842209e+00 -2.283198931326469783e+00 2.612137155221056162e+00 -2.919340299634748614e+00 9.172879226903676297e-01 2.645559442197968902e+00 -7.723167731784105206e-01 2.534067658157823644e+00 -2.121583487013775748e+00 2.669974125615053762e+00 1.330422582987990987e+00 -2.809758331180674529e-01 -7.431604609193337430e-01 -1.344668552561631980e+00 4.168175087702776782e-01 -6.024732838488291442e-01 -5.488112711132344668e-01 -2.686137109864212835e+00 -2.983226562046661812e+00 -6.062949719036696550e-01 -4.962275277105509197e+00 4.919232435524449443e+00 3.606735585258705967e+00 -1.747517770922640823e+00 1.782545969066839264e+00 5.168426859838772813e-01 3.932884161992701522e+00 1.024012366854783140e+00 1.956639492273338776e+00 1.255644612463917564e+00 -6.105743163590496847e-01 2.387865978571158010e+00 -6.683943174707800416e-01 -5.255088470156625835e-01 1.000805073582042626e+00 8.801071968016100922e-01 1.477115857539730293e+00 3.416771669366988284e+00 1.334874705590091137e+00 -1.664295782698280268e+00 1.069985752061317408e+00 2.739857229536055705e+00 -1.651759596868226820e+00 2.274079227659543623e+00 4.423393093001277698e-01 -2.842667940144848249e+00 6.863467896681149094e-01 -3.766651016020632903e-01 -1.309070597909796074e+00 2.678776040904977118e-01 4.969264050296215429e-01 -5.739448350336382454e-01 -2.821981356619796544e-01 -4.662366867184006836e-01 -3.397599979949789684e-01 -6.185617061001473793e-01 -6.066127602806734576e-01 1.017586151082266743e-01 -4.463671998455483458e-01 7.771576466106318026e-01 2.415074422914231356e+00 -1.218193920720909568e-01 8.054161295715719371e-01 1.286678344406555263e+00 2.159346310706365124e-01 2.501273748845471712e+00 2.235537359644687694e+00 -1.979142817442328672e-01 -2.150725915314633863e+00 1.753122776277560302e+00 -2.431665238764793013e+00 7.405502767742353498e-01 -2.476240457956646157e+00 2.834285114704857111e+00 -5.047590143476156088e-01 4.492607195824412925e-01 -1.129254312813856298e-01 3.293136049871633331e-01 2.136555021959507972e+00 2.220020750783706198e+00 1.772477014034299581e+00 -3.542325331979210290e+00 -1.004162420367571862e+00 2.024862177635530225e-01 4.639103523857716738e+00 3.223248317964558796e-01 -2.814624401425958933e+00 -5.336582162693107589e-01 -2.743600756048332201e+00 7.230158659854830638e-01 -1.907444000318737842e+00 -1.231059722003486345e-01 -3.447191936044633032e+00 4.805268792700717606e-01 -5.300329605122298116e-01 -8.980894937980814507e-01 -1.800033585774188261e+00 -6.288291503131452354e-01 -1.037766227242675976e+00 1.186161058007207059e+00 -5.388626437185897178e-01 -9.732130206155953367e-01 1.573403164668475851e+00 -3.610151038980484284e+00 2.260178300158668385e+00 4.244829449469061267e+00 1.222912409632537001e+00 2.781339411369207593e+00 -1.580800743295620148e+00 9.237820155919529430e-02 -3.680426493276330313e-01 -1.216024423694083367e+00 3.842107243614718559e+00 3.635282546018188565e+00 -9.803133796927266941e-01 1.628514251265553492e+00 -1.727980984826360311e+00 -5.870451209439071505e-01 -1.411278641887765861e+00 1.182111570193446370e+00 -2.844200831976317345e-01 -1.395817568859658797e+00 -6.645016669628222017e-01 -9.822936435112398224e-01 6.669832959392295590e-01 -2.470665791621537988e+00 5.468639174179060758e-01 -1.010083671437470576e+00 -1.226432250151291647e+00 2.085663115998863226e+00 -6.815198001941121797e-01 3.834603735528574475e+00 9.804645605711069523e-02 2.346856879758788317e+00 -1.230854033733580932e+00 -6.408192337866001065e-01 6.758931975708526441e-01 -6.241610550276444937e-03 1.584276360836344821e+00 -1.264396648348388164e+00 1.135117971168181583e+00 -1.468598306282951516e+00 4.745809456077841326e-01 8.770846076753516796e-01 -1.438702030472890359e-01 3.737217024597184190e-01 -2.861895165394920740e-02 5.104272688455310236e-01 -6.028003281979785744e-01 -2.148587785748968138e+00 1.190108215906689582e+00 1.083796690944109242e+00 1.023924435119398790e+00 -1.454496832718918498e+00 4.355156009460193212e-01 -1.587895960166003650e+00 -1.220799476879935064e+00 -2.023921153800713191e-02 -1.325084972383948345e-01 -6.790078321978937348e-02 -1.745630066825585025e-01 8.441971102001927241e-01 -7.942179459372524786e-01 4.778904698705605525e-01 1.601870421223369645e+00 -1.962643018651200055e+00 7.644044596558281501e-01 -3.595236582529650171e+00 2.614713400801619958e+00 -9.015897939311948717e-01 -9.017368610441772736e-01 -6.280835303347386267e-01 -1.813172952455739118e-01 2.500120351871977231e-01 -8.108828095649802670e-01 1.618555853678088352e-01 -7.458477781656464023e-01 1.456859676719455932e+00 -1.734835546420954389e+00 2.963305138885658163e+00 -3.524026275047084100e-01 -2.000870697833775136e+00 -1.517531031472748593e+00 -9.320249730084080586e-02 -2.058703040241700311e-01 1.378059986298059252e-02 -1.218061251786820565e+00 -2.799381357963950934e-01 -1.479612913136380659e+00 -9.240617516390240427e-01 -2.250820512319327005e+00 4.996132080552596055e-01 5.142340445008033445e-01 -1.700795680413651034e+00 1.259052867096248640e+00 -3.424750831577289545e-01 3.123319814237814906e-01 -1.943129886705958542e+00 1.445147786631047815e+00 8.491999631449644870e-01 -1.189047892875327861e-01 -7.988258774038060617e-01 -1.216315472595999259e+00 1.903274699087757205e-01 7.599564508191259948e-01 2.224590115699652593e+00 -4.011786696549050291e+00 1.236342310995329319e+00 -1.396695343551479784e-01 -6.914180339626301297e-01 -7.739483953794342730e-01 9.991415696991834405e-01 -5.650051086028790720e-02 -6.183503614028196260e-03 5.032888574384674074e-01 1.590729830304624004e+00 -4.798907882953895032e-01 -5.764069236244048211e-01 -1.430749093517001969e+00 1.965992137905933301e+00 -3.408537453702004116e-01 1.651186240815865514e+00 1.527630839745773850e+00 -3.558085681440029013e+00 3.477340179985328183e-01 3.641587919932136153e+00 4.025696365801397114e+00 -1.284986558386584043e+00 6.527296130554668396e-01 -1.248796221517420646e+00 1.703702055667412951e+00 3.279694321433321291e-01 -4.192996519673599098e-01 -3.755615840340213452e-01 -2.749172851280066721e-01 -1.102365713730485419e+00 -1.637608758119416530e+00 9.637446753311795788e-01 1.403490255547801491e+00 1.177643506750428504e+00 -1.035044971431828831e+00 -1.446988696646700490e+00 -1.065908496331119837e+00 -5.798701998689353987e-01 -1.532485597136213906e-01 1.760535267304272455e+00 -1.201723432508242095e-01 9.010971705247715624e-01 8.678954842173324247e-01 6.413427104335092110e-01 1.342880093054805490e+00 3.067454880131534334e-01 -2.187577025750868209e+00 3.760036081260478724e+00 3.182036616206332269e+00 -3.238777782342409095e-01 -2.513595504654148272e+00 2.249490223433713965e+00 6.374351475259832922e-01 1.973104324058583492e+00 2.824328774000091080e+00 -8.488292100384601246e-01 1.595280169055603992e+00 1.197096474876722549e+00 -4.823561164764071485e+00 -9.463053953672583285e-01 6.100287282231258157e-01 -6.193098971819277487e-01 -2.184872225001613377e-02 -2.506825789470890076e-02 2.539499885366022447e+00 -1.717945968358355113e+00 -4.812480737664271757e+00 -1.655277894724956900e+00 1.820581843937728150e+00 -2.334829258176075450e-01 -1.120639059628872447e+00 4.176536315874427863e-01 -1.021269513775596049e+00 6.665894029023609890e-02 -1.100329399858422826e-02 2.750049083309863640e+00 -2.566705244385047990e+00 -3.165331643365972836e-01 1.075725997453699900e+00 -1.322644481061521660e+00 -4.704584384582071177e-01 1.267092707346172187e+00 3.971634803601511304e-02 8.150654805335044717e-02 -2.314564335604329948e+00 8.449165049241864622e-01 1.767005191834144062e+00 -4.149534074021934416e+00 2.363276974345327908e+00 4.114917252417546467e-01 -9.854062212555819711e-02 -1.259482755580350721e+00 -8.268478188543552099e-01 1.020084749340941288e+00 -6.626324748100577144e-01 -4.165336589578083615e-01 9.545792060241994337e-01 -4.391239388429005075e+00 2.477822200752218151e+00 -7.272623003176780232e-01 2.335689035144279391e+00 2.064500878349655899e+00 1.352454367798222590e+00 6.274371549465611597e-01 2.842724504419071874e+00 9.594231647804691843e-01 -2.396977454707287958e+00 -9.162353129691273024e-01 1.445443977739711672e+00 1.964343546422641917e-01 -1.319204858968030303e+00 6.174936697586639323e-01 -2.608907335162868435e+00 1.632000153219773431e+00 5.202294461920032198e+00 8.794232833041749631e-01 -1.301305351500195995e+00 -1.633867288489839087e+00 -4.978687144161252576e+00 7.582255840278728787e-01 -3.436706976486210596e+00 6.068534155564625499e-01 2.780867356789774814e+00 -1.136224059839597400e+00 1.612979644680955227e+00 -6.283570957337126783e-01 -7.927328766285361983e-01 -1.751002644435511124e+00 -1.687733961053989429e+00 -2.990780977979608846e+00 -1.867315761522237327e+00 7.251899909983820780e-02 -4.741988796464350342e-01 6.010735751721235642e-01 1.560155811645224766e+00 -2.109302354638404875e+00 -4.178073835691969440e-01 2.186560411476861088e+00 2.008576808865777386e-01 -1.146359349339181266e+00 2.153556185908530804e-03 -2.364317242770374250e+00 1.692737328219435788e-01 4.447283785550778523e-01 -1.891576178736893155e-01 -5.744415722054596607e-01 -3.278958985868409837e-01 -1.735982258525676558e+00 -1.532290193279803869e-01 -3.619968540103064125e+00 9.500484076588601445e-02 9.171794221279926107e-02 -3.276644992831975189e-01 -2.797524507107381098e+00 2.146192545845921062e-01 5.814601701953032997e-02 1.210372624257760425e-02 1.431824843168606698e+00 1.217951208562421339e+00 2.105456498211850214e+00 6.737257574267254689e-01 -1.052426144459501778e+00 -2.062130835259672335e+00 1.892299173005610236e+00 -3.545603488780824986e+00 -3.568017339552407297e+00 1.807495956206352394e+00 8.991883833800504711e-01 -5.867196192567820656e-01 -2.247278046090882553e-01 -2.833191881550310764e+00 2.800162973389591636e-01 1.877868083989054027e+00 -2.216685515487192060e+00 -3.695851056636528131e+00 3.149402629523831543e+00 -1.009084026445731030e+00 -1.985014189106775406e+00 2.454385565058533059e-01 -8.612316984930752373e-01 1.191857594642234508e+00 -5.690926487465721717e-01 2.173538801329831127e+00 -4.904019731082253641e-01 -1.081960408914529603e+00 1.042369016502481927e+00 -1.839853806386505530e+00 -1.210279550315628061e+00 -4.529528240272415185e-01 2.704409941541925377e-01 4.903608354542442899e-02 -3.115544797635393937e-01 -3.241749977842540986e-02 -4.356282152737924740e-01 -1.691166384058034211e+00 1.596326093908072563e+00 -1.258092302875790935e-01 5.521393073203022528e-01 4.806528633353887026e-01 3.728562690640918609e-01 -7.007038309075052096e-01 2.932657072449093016e-01 3.238572094072503238e-01 3.118054194528239176e-01 2.995427475996769395e+00 -2.095294983457853533e-01 1.810324684138225226e+00 2.199614931747075897e-01 -1.551741618744073348e+00 5.792294809081803830e-01 -2.831808113714522346e-01 2.491681990599111940e-01 -2.281326653849657049e+00 -8.605174459758291317e-02 -3.191973930746132115e+00 -1.157942170038223750e+00 -2.216119358524277771e+00 1.408999101636540185e+00 1.480282428454922306e+00 -9.463964124266915912e-01 -8.916457945226230475e-01 -7.753131370502559516e-01 2.548421099852490324e-01 2.314219293531563637e-01 1.932431525567508634e+00 1.122981849023094059e+00 1.466551707997393761e+00 9.583227325364757077e-01 -2.439728218945080851e+00 -2.472054187443398776e-01 -1.536388532057667011e-01 2.816390235223095839e+00 -8.885656126807909283e-01 1.208228324043997687e-01 -4.277529256397931134e-01 -8.916709913356862804e-01 5.837998742654761791e-02 3.471841618310084421e+00 -6.917615333733720950e-01 1.743437429868394117e+00 -1.339892470934431090e+00 3.013640658076209178e+00 -1.899439127074698197e+00 4.363954325205393059e-01 -4.414860629344931731e+00 -5.751306279096424223e-01 -2.435174280649377854e-01 -4.667231394767268338e-01 -1.049741912537237587e+00 1.700433669058617703e+00 -2.540709332393065623e+00 2.890099140964336399e+00 2.244063652652937613e+00 -3.429872983718606605e+00 3.626795848001895362e+00 -9.109861483211438848e-01 -2.088039329736944283e-01 2.829433956859140675e+00 2.435723982550699773e+00 2.471927174936732641e+00 4.973453920354186764e+00 -1.749288232705850543e+00 -5.239859824873512650e+00 -5.908080335756221935e+00 -1.440960487676450796e+00 3.972048751244695364e+00 2.157772795441589495e-02 -2.065073720181342054e+00 5.240186355001986707e-01 9.752071683923273504e-01 4.056834998761686073e+00 -5.859791414851228675e-01 -2.735752720110095293e+00 2.689520681904154831e+00 -2.742101802781397257e+00 -1.721504375427717060e+00 -1.354013484884105001e+00 2.445249406330014086e+00