-2.396555247206951478e+01 -7.078828914309228004e+00 -2.883667923924718712e-01 -7.078828914309228004e+00 -7.271810225838864028e+01 2.235566310155945047e+01 -2.883667923924718712e-01 2.235566310155945047e+01 -3.623958383250793958e+01
-4.331373262673021429e+01 -2.715756211759104310e+00 5.577956752995662626e+00 -2.715756211759104310e+00 -4.695760430509101724e+01 -1.621017847978202475e+00 5.577956752995662626e+00 -1.621017847978202475e+00 -3.037905231132478789e+01
-6.442836286083397113e+01 2.307499216744740167e+01 -8.152858682253700806e+00 2.307499216744740167e+01 -3.716122119696475323e+01 1.538975158782112729e+01 -8.152858682253700806e+00 1.538975158782112729e+01 -3.813778019617456749e+01
-5.034197537883740381e+01 -1.121999331276804490e+01 2.791932966496928903e-01 -1.121999331276804490e+01 -2.495437840293351783e+01 -9.386576285354109928e+00 2.791932966496928903e-01 -9.386576285354109928e+00 2.091029913452435451e+01
-3.705915927001662880e+01 -1.076878358850852102e+01 -1.856661641649059291e+01 -1.076878358850852102e+01 -1.114710094772044897e+02 3.612495732888640276e+01 -1.856661641649059291e+01 3.612495732888640276e+01 -2.583201132228709440e+01
-2.922815179320404155e+01 -2.369385650952994737e+01 1.581887713471163082e+01 -2.369385650952994737e+01 -5.588608110896340975e+01 -1.934195647181656375e+00 1.581887713471163082e+01 -1.934195647181656375e+00 -4.717417022994163034e+01
-4.374116148752195699e+01 -2.538128541911362390e+01 1.630998150065924079e+00 -2.538128541911362390e+01 -4.409306651123873166e+01 6.465394928631980953e+00 1.630998150065924079e+00 6.465394928631980953e+00 -7.420973134800526338e+01
-6.135419063675354323e+01 2.076271888027678614e+01 -1.804111119765661542e+01 2.076271888027678614e+01 -5.188618593868461915e+01 4.558840367001590010e+01 -1.804111119765661542e+01 4.558840367001590010e+01 -8.143699296256691866e+00
-5.190513997962288073e+01 1.142747742082340423e+01 -5.222415650352039584e+00 1.142747742082340423e+01 -2.869102620525086067e+01 9.524579399978977179e+00 -5.222415650352039584e+00 9.524579399978977179e+00 -1.232183213552969505e+02
-5.250418570257982509e+01 1.348998038640783292e+01 -3.018173703686438714e+01 1.348998038640783292e+01 -6.549672202824798717e+01 1.629437537870776964e+01 -3.018173703686438714e+01 1.629437537870776964e+01 -3.188340000160022925e+01
-3.607394545734526048e+01 1.853970556866169872e+01 2.701722037161070133e+01 1.853970556866169872e+01 -7.936674065275316536e+01 -9.646472270144053951e+00 2.701722037161070133e+01 -9.646472270144053951e+00 -2.287750573911480600e+01
-1.473671666273779302e+01 1.585506937263114047e+01 1.665865877865937250e+01 1.585506937263114047e+01 -4.610867324593645122e+01 8.454608237993246789e+00 1.665865877865937250e+01 8.454608237993246789e+00 -3.544120895273385941e+01
-2.099964562809755719e+01 8.967903972360243614e+00 -1.526069931893614040e+01 8.967903972360243614e+00 -4.352136848466776087e+01 1.905476719448556722e+01 -1.526069931893614040e+01 1.905476719448556722e+01 -3.130591723400687343e+01
-6.155953787482945927e+01 3.408513823583109570e+01 6.572674780084842183e+00 3.408513823583109570e+01 2.485856779320915422e+01 1.663687057373833156e+01 6.572674780084842183e+00 1.663687057373833156e+01 -7.728092548922604976e+01
1.127793088144622224e+01 -2.137782384486476417e+01 2.651216410331052931e+00 -2.137782384486476417e+01 -1.812596657944240164e+01 1.538900845716280275e+00 2.651216410331052931e+00 1.538900845716280275e+00 -3.997781496764140030e+01
-5.703618588777686682e+01 2.895569755790158073e+00 -2.314054716620133956e+00 2.895569755790158073e+00 -6.066954430229136364e+01 2.409285144840119131e+01 -2.314054716620133956e+00 2.409285144840119131e+01 -9.408453839552268505e+01
-5.625819001614969039e+01 2.523020907179505912e+01 -1.228141221952357576e+01 2.523020907179505912e+01 -3.617558274438484744e+01 2.875186844445910950e+01 -1.228141221952357576e+01 2.875186844445910950e+01 -5.506874582635653326e+01
-6.875077302607638785e+01 -7.544478971968212377e+00 7.495820327355372292e+00 -7.544478971968212377e+00 -6.655289624741948273e+01 5.856177292378619725e+00 7.495820327355372292e+00 5.856177292378619725e+00 -7.649311113264199946e+01
-5.349480514029881562e+00 -1.030300549000513577e+01 1.014926911247482494e-01 -1.030300549000513577e+01 -9.433810064329989586e+01 1.636696419681101133e+01 1.014926911247482494e-01 1.636696419681101133e+01 -4.033303705478460444e+01
2.547548400648293665e+01 1.374927140721882246e+01 1.895950403535024620e+01 1.374927140721882246e+01 -3.676966786286911315e+01 -2.597041115854343829e+00 1.895950403535024620e+01 -2.597041115854343829e+00 -1.296432710530088706e+01
-3.749504498201323344e+01 -3.921998948773418814e+00 6.737237813012675325e+00 -3.921998948773418814e+00 -4.296832477573612152e+01 2.860217907947180671e-01 6.737237813012675325e+00 2.860217907947180671e-01 -3.784440461887273699e+01
-5.569142512052143701e+01 -2.755729986178683699e+00 1.274037978847707697e-01 -2.755729986178683699e+00 -4.517881535183897057e+01 -1.304989149515499136e+01 1.274037978847707697e-01 -1.304989149515499136e+01 -3.431244717036133096e+01
-5.196250689093177755e+01 -1.828911526196155268e+00 9.509277779677278275e+00 -1.828911526196155268e+00 -9.021225083078050488e+01 8.973044489387623557e+00 9.509277779677278275e+00 8.973044489387623557e+00 -1.083772264923477024e+01
3.933749881169236318e+01 1.971147141005244308e+01 4.110972016859647304e+00 1.971147141005244308e+01 -2.950782054100633900e+01 -1.237489511454013424e+01 4.110972016859647304e+00 -1.237489511454013424e+01 2.294478306563231929e+00
-3.107846942969383619e+01 1.666830385201602738e+01 4.057093743870454006e+01 1.666830385201602738e+01 -4.983067559007218250e+01 6.964969362077530590e+00 4.057093743870454006e+01 6.964969362077530590e+00 -5.966045470966974307e+01
-9.050601789483646087e+01 3.033015034415531375e+01 -2.853995882875682000e+01 3.033015034415531375e+01 -3.883026703531263735e+01 8.358800340925856887e+00 -2.853995882875682000e+01 8.358800340925856887e+00 -8.453059876775286341e+01
-3.957548571360743495e+01 -5.730129582099831254e+00 1.146375590616360629e+00 -5.730129582099831254e+00 -8.382045719505088144e+00 -6.238230272981666324e+00 1.146375590616360629e+00 -6.238230272981666324e+00 -7.742002070424828020e+00
-3.715818581472809257e+01 -6.584360943298639413e+00 -4.851987760512843550e+01 -6.584360943298639413e+00 -7.554500941358203647e+01 1.690025397505108051e+00 -4.851987760512843550e+01 1.690025397505108051e+00 -2.252561547578778089e+01
-2.371857804573174278e+01 1.392096963345476013e+01 2.154874420322292039e+01 1.392096963345476013e+01 3.138540351912551263e-02 -2.749521116143594668e+01 2.154874420322292039e+01 -2.749521116143594668e+01 -4.631729627173168495e+01
-9.183816968129094960e+01 6.523275074237408155e+00 2.006114661539815813e+01 6.523275074237408155e+00 -1.133619449941770938e+02 -7.435985230276217273e+00 2.006114661539815813e+01 -7.435985230276217273e+00 -5.173017975938062563e+01
-1.016881559962958903e+02 1.668905527166099745e+01 8.246606307286180382e+00 1.668905527166099745e+01 -4.765484906208212834e+01 2.723346342855580460e+01 8.246606307286180382e+00 2.723346342855580460e+01 -1.206553986312766824e+02
-4.927088274124373157e+01 2.620789835454516492e+01 1.322108445641810626e+01 2.620789835454516492e+01 -6.158526157783441590e+01 -2.218832515620489332e+01 1.322108445641810626e+01 -2.218832515620489332e+01 -6.008140915124040760e+01
1.969092014166063365e+01 1.455312707771639857e+01 1.397743653925836860e+01 1.455312707771639857e+01 -4.420484243679352687e+01 -1.944605363030277090e+01 1.397743653925836860e+01 -1.944605363030277090e+01 -1.668375430794084124e+01
-1.729622451138801864e+01 -3.031091651049130586e+00 2.360041760948604406e+01 -3.031091651049130586e+00 -1.996871544627032335e+01 -5.225895187716815826e+00 2.360041760948604406e+01 -5.225895187716815826e+00 -4.711454482109851938e+01
-1.854947837700040836e+01 4.469776522269490293e+00 9.219863640897360213e+00 4.469776522269490293e+00 -4.136469175142291022e+01 2.128781814256217331e+01 9.219863640897360213e+00 2.128781814256217331e+01 -4.099735809391756192e+01
-2.531568490791170856e+00 -6.044093076003469456e-01 4.475238718852998510e+00 -6.044093076003469456e-01 1.963892708832146639e+01 8.771435027031008858e+00 4.475238718852998510e+00 8.771435027031008858e+00 -7.921143472184593293e+01
-2.514715903806585473e+01 -3.603127618812894006e+00 1.370561090174343732e+01 -3.603127618812894006e+00 9.109410681681760380e+00 3.277021183045513908e+01 1.370561090174343732e+01 3.277021183045513908e+01 -4.585303489958833723e+01
-1.268004426542890961e+01 1.367206783295234551e+01 -4.580403153896774882e+01 1.367206783295234551e+01 -6.170023593176387067e+01 1.869071267707378681e+01 -4.580403153896774882e+01 1.869071267707378681e+01 -8.930594248802901802e+01
-7.622877745031217955e+01 -2.082238053239734654e+00 1.425959511741552532e+01 -2.082238053239734654e+00 -6.173600565966297893e+01 5.037038972940524495e+00 1.425959511741552532e+01 5.037038972940524495e+00 -4.118942648333239021e+01
-2.316521533748203154e+01 2.079281052179304723e+01 -3.946471823025470282e+00 2.079281052179304723e+01 -8.196949713472950805e+01 1.619611923972002643e+01 -3.946471823025470282e+00 1.619611923972002643e+01 -7.535443493928444525e+01
-3.680434581210734990e+01 -1.212549704517363436e+00 -3.641636454022106228e+00 -1.212549704517363436e+00 -5.402379098833234394e+01 1.305082468856138789e+01 -3.641636454022106228e+00 1.305082468856138789e+01 5.043641621738720993e+00
-8.074558032558223886e+01 -6.138798280013767261e+00 -6.719389077678526334e+00 -6.138798280013767261e+00 -3.802279099827710951e+01 -8.902987814057558680e+00 -6.719389077678526334e+00 -8.902987814057558680e+00 -3.915364630102281041e+01
-6.062315594819518338e+01 2.287336862652377434e+01 1.559427051392530927e+01 2.287336862652377434e+01 -2.988368381709107524e+01 1.802818240379979642e+01 1.559427051392530927e+01 1.802818240379979642e+01 -4.612130054283387182e+01
9.999382504723538290e+00 -1.300566906435399339e+01 2.453289759332293762e+00 -1.300566906435399339e+01 2.042585199697317666e+00 5.442887746234207569e+00 2.453289759332293762e+00 5.442887746234207569e+00 -2.750932131833570438e+01
-3.508641023382956092e+01 -1.857132857781319535e+00 5.216963223295467245e+00 -1.857132857781319535e+00 -3.525505824504449492e+01 -4.739341006679825163e+00 5.216963223295467245e+00 -4.739341006679825163e+00 5.916980802391838878e+00
-2.183604716386774314e+01 6.338391562952280900e+00 -2.393346140524979404e+01 6.338391562952280900e+00 -7.101751847450242394e+01 -9.538889203872031430e+00 -2.393346140524979404e+01 -9.538889203872031430e+00 -2.461943546683143325e+01
-2.748290676782665898e+01 -5.324815876237249057e+00 -2.165346874771001850e+01 -5.324815876237249057e+00 -6.153921133228639917e+01 -3.782031364688827613e-01 -2.165346874771001850e+01 -3.782031364688827613e-01 -2.126467067246498388e+01
-4.078251960487020966e+01 3.308339366407151871e+00 -8.447706041604687854e+00 3.308339366407151871e+00 -5.620601374954674156e+01 -6.920171958737928897e+00 -8.447706041604687854e+00 -6.920171958737928897e+00 -6.131050756348634678e+01
-3.569762606792696857e+01 3.187097482352304567e+01 -3.907958081209682888e+01 3.187097482352304567e+01 -1.653006141486114089e+01 -1.558745622067191050e+01 -3.907958081209682888e+01 -1.558745622067191050e+01 -5.981566585265293945e+00
-9.569936474339428401e+01 -1.214346183862842743e+01 1.157139035092005486e+01 -1.214346183862842743e+01 -6.778201679371422017e+01 3.277261801387898288e+01 1.157139035092005486e+01 3.277261801387898288e+01 -6.128125479475291115e+01
-6.856158889843734983e+01 -1.485763819153159027e+00 7.705583973964607480e+00 -1.485763819153159027e+00 -5.146590794934749624e+01 -1.545542110922980150e+01 7.705583973964607480e+00 -1.545542110922980150e+01 -1.765700130337771512e+01
-3.738562727830391896e+00 4.188349484966715863e+01 1.495934347808263709e+01 4.188349484966715863e+01 -3.358709839097196692e+01 1.746596955195397527e+01 1.495934347808263709e+01 1.746596955195397527e+01 -5.449632940007206372e+01
-8.602577607054080033e+01 -4.694592337383573621e+00 1.818750108283568645e+00 -4.694592337383573621e+00 -3.997546088694139854e+01 6.832950636996262261e+00 1.818750108283568645e+00 6.832950636996262261e+00 -4.634925459301257433e+01
-2.453079256676121389e+01 6.325244001953590711e+00 -1.601707511760817937e+01 6.325244001953590711e+00 -4.780742504778046964e+01 1.053068442075118227e+01 -1.601707511760817937e+01 1.053068442075118227e+01 -4.007603988431656461e+01
-2.454083041748674177e+01 1.072681221625557013e+00 -5.811252730233211317e+00 1.072681221625557013e+00 -3.336289692896087189e+01 3.455417822007133566e+01 -5.811252730233211317e+00 3.455417822007133566e+01 -1.689183956521063124e+00
-6.893693641333568678e+01 -1.015161232342718556e+01 -2.093369467420452068e+01 -1.015161232342718556e+01 -5.098103231630857834e+01 3.474669305007841213e+00 -2.093369467420452068e+01 3.474669305007841213e+00 -8.699553738679564674e+01
-7.928036106977363318e+01 -4.159741294019148050e+00 -8.091013364429469945e+00 -4.159741294019148050e+00 -2.849544295270912642e+01 1.775011651395642076e+01 -8.091013364429469945e+00 1.775011651395642076e+01 -3.892828620422395858e+01
-7.872650851261190041e+01 -1.507128558184798628e+01 -2.876550859974784302e+01 -1.507128558184798628e+01 -6.298745884917946114e+01 -1.463131993136684450e+01 -2.876550859974784302e+01 -1.463131993136684450e+01 -8.827009606066494030e+01
-2.474162063462106431e+01 1.465017347194894271e+01 -3.023265115481856924e+01 1.465017347194894271e+01 -3.394617974647520953e+01 -2.539690605206696095e+00 -3.023265115481856924e+01 -2.539690605206696095e+00 -1.621489930771524968e+01
-3.916036289712506857e+01 1.345865850251907858e+01 -2.283018357116864649e+01 1.345865850251907858e+01 -7.070692086112889285e+01 -3.990473884587145648e+01 -2.283018357116864649e+01 -3.990473884587145648e+01 -3.520328253997370638e+01
-8.802906636144699348e+01 -9.029873704671713242e+00 2.091149020693306770e+00 -9.029873704671713242e+00 -4.959343100174692864e+01 -3.377541045057609637e+01 2.091149020693306770e+00 -3.377541045057609637e+01 -3.677467509129799339e+01
-7.161346275154595276e+01 1.103458132385568824e+01 -1.597789917891585354e+01 1.103458132385568824e+01 -1.585603204282522327e+01 8.864969070218512215e+00 -1.597789917891585354e+01 8.864969070218512215e+00 -5.253902594125577963e+01
-4.421534586489113394e+01 1.806813586842933717e+01 -2.572571782862073420e+01 1.806813586842933717e+01 -6.735828292361171066e+01 4.620907455683056497e+00 -2.572571782862073420e+01 4.620907455683056497e+00 -6.375360473322181321e+01
9.219952256385696154e-01 9.651869089065401752e+00 1.407602104377584062e+01 9.651869089065401752e+00 -1.225509527481730476e+00 -1.066191074476164857e+01 1.407602104377584062e+01 -1.066191074476164857e+01 -2.586268417387995555e+01
-2.286429011197755656e+01 -2.379770979384902674e+01 -1.463091426875057444e+01 -2.379770979384902674e+01 -5.389028012257713840e+01 -5.529754735630391105e-01 -1.463091426875057444e+01 -5.529754735630391105e-01 -2.330988804624725574e+01
-3.453463132596984764e+01 1.622974110643335521e+01 2.308440174578239024e+01 1.622974110643335521e+01 -9.932283290134162712e+01 1.015146561248456614e+01 2.308440174578239024e+01 1.015146561248456614e+01 -5.178769070924323614e+01
-7.154972510940578623e+00 2.798508445961211777e+01 -3.663376106894559836e+00 2.798508445961211777e+01 -6.742866229852897675e+01 1.066243842802691866e+01 -3.663376106894559836e+00 1.066243842802691866e+01 -3.372904746426672773e+01
-4.258276001449622328e+01 -1.481985317127228896e+01 3.804296207773848693e+00 -1.481985317127228896e+01 -2.151209559214147760e+01 2.718057103366403737e+01 3.804296207773848693e+00 2.718057103366403737e+01 -4.137205800321830651e+01
-2.628099497320911482e+01 2.509733613588395684e+01 -3.862035341073540629e+00 2.509733613588395684e+01 -7.654702665238886539e+01 8.292407581999336585e+00 -3.862035341073540629e+00 8.292407581999336585e+00 -3.363566752327684384e+01
-5.041705471851695108e+01 1.426346224490068693e+01 3.354732232636421685e+01 1.426346224490068693e+01 1.358132886323869970e+00 -9.087310599156469548e-01 3.354732232636421685e+01 -9.087310599156469548e-01 -5.009512858457659945e+01
-5.277363069577062760e+01 3.720153529789868685e+00 -1.244168562253950938e+01 3.720153529789868685e+00 -3.251842768435646036e+01 -6.002958215132944808e+00 -1.244168562253950938e+01 -6.002958215132944808e+00 -3.077916319494823583e+01
-2.571959304566236426e+01 2.689329318622300136e+01 1.529362900053202701e+01 2.689329318622300136e+01 -8.662813422811407804e+01 3.871446183027976673e+01 1.529362900053202701e+01 3.871446183027976673e+01 -3.295741780422283718e+00
-4.424123961746086309e+01 3.023210137258707686e+00 -1.663531000200734766e+01 3.023210137258707686e+00 -8.055667909521838510e+01 7.914391274918747499e+00 -1.663531000200734766e+01 7.914391274918747499e+00 -3.365456918941160325e+01
-4.272488336691963595e-01 1.462080895063526853e+01 2.643610357243693088e+01 1.462080895063526853e+01 -4.816492185979010543e+01 -5.808301015939479583e+01 2.643610357243693088e+01 -5.808301015939479583e+01 -4.186454513479112904e+01
-4.086951497673904754e+01 1.038805761222596935e+01 2.023405415213893388e+00 1.038805761222596935e+01 -5.379507085631998109e+01 2.872760720394613188e+01 2.023405415213893388e+00 2.872760720394613188e+01 -1.610837994597810052e+01
-3.104932059553277668e+01 3.217409077217571856e+00 -1.951549439256251262e+01 3.217409077217571856e+00 -5.159377630167921325e+01 1.559013445507299522e+01 -1.951549439256251262e+01 1.559013445507299522e+01 -3.152038589973350113e+01
-6.473402539672251521e+01 -2.461554011193955205e+01 1.023249100836309466e+01 -2.461554011193955205e+01 -4.597370506247791866e+01 -9.390386174446561540e+00 1.023249100836309466e+01 -9.390386174446561540e+00 -1.334750357412193722e+00
-9.258250061269444586e+01 3.707689926562390070e+01 -1.049127439415188512e+01 3.707689926562390070e+01 -8.480904166073705142e+01 -1.119681143528224787e+01 -1.049127439415188512e+01 -1.119681143528224787e+01 -7.719639998256144509e+01
-2.108172986015068773e+01 -1.281957173430452812e+01 -3.195088828490888488e+01 -1.281957173430452812e+01 -9.698110009257966624e+01 8.424775601282568971e+00 -3.195088828490888488e+01 8.424775601282568971e+00 -5.721107073175367219e+01
-1.177222380157736552e+02 1.188089278085983480e+01 1.488075519482238107e+01 1.188089278085983480e+01 -8.938528013564253172e+01 -1.142645166804586232e+01 1.488075519482238107e+01 -1.142645166804586232e+01 -5.338918572970754894e+01
-4.546189555016955808e+01 4.101633273446593364e+01 -1.155146539650738369e+01 4.101633273446593364e+01 -3.587962862732490521e+01 3.977447560547913596e+00 -1.155146539650738369e+01 3.977447560547913596e+00 -7.119718381535226115e+01
1.825584064143358276e+01 1.472243976754477809e-02 2.840320937804275303e+01 1.472243976754477809e-02 -1.079277380865043234e+01 -4.524366862346952400e-01 2.840320937804275303e+01 -4.524366862346952400e-01 6.338032719562087181e+01
-5.186889206443410671e+01 -2.231833493270883295e+01 1.369394621524197042e+01 -2.231833493270883295e+01 -9.811697332114031056e+00 1.354210187282718714e+01 1.369394621524197042e+01 1.354210187282718714e+01 -9.044075217373908515e+01
-5.526454457532021536e+01 -1.044033389113709909e+00 -4.052867600077851407e+00 -1.044033389113709909e+00 -1.068678470323255425e+02 6.179285039324605044e+00 -4.052867600077851407e+00 6.179285039324605044e+00 -4.737423509071727068e+01
-7.746676718792890881e+01 1.010455358480729160e+01 1.897808218876399522e+01 1.010455358480729160e+01 -7.732044783021329692e+01 1.879726685990540247e+01 1.897808218876399522e+01 1.879726685990540247e+01 -4.464139903563622624e+01
-4.192753809079195371e+00 2.528008423416608252e+00 2.363388264526892968e+01 2.528008423416608252e+00 -3.049309098347421454e+01 1.313256258481804606e+00 2.363388264526892968e+01 1.313256258481804606e+00 -3.049084808260866097e+01
-3.272284924987543064e+01 9.623745033207448785e+00 1.695960279837593632e+01 9.623745033207448785e+00 -2.342851090907067224e+00 -2.749479585450252728e+01 1.695960279837593632e+01 -2.749479585450252728e+01 -6.247085892561845810e+01
-4.753596875138634914e+01 2.052606210665444308e+01 -1.871765328745739154e+01 2.052606210665444308e+01 -1.234041336717386983e+01 1.864742710006791171e+01 -1.871765328745739154e+01 1.864742710006791171e+01 -4.967407398915169381e+01
-4.703777756080361883e+01 3.075874578015840655e+01 -9.797547960364164865e+00 3.075874578015840655e+01 -3.594176003436935929e+01 -2.367713307691818869e+01 -9.797547960364164865e+00 -2.367713307691818869e+01 -4.110074368837277348e+01
-7.277313964517956890e+01 2.659984279975049049e+01 2.819680396192916660e+01 2.659984279975049049e+01 -4.717176041212084669e+01 5.678291731528785746e+00 2.819680396192916660e+01 5.678291731528785746e+00 -9.301898554921038453e+01
-6.962636814109285410e+01 -1.054788512846144144e+01 2.149921394348096726e+01 -1.054788512846144144e+01 -6.337529394857874365e+01 2.765467925625557211e+00 2.149921394348096726e+01 2.765467925625557211e+00 -6.160664119394515126e+01
-4.159548877813944046e+01 -2.663463284252516328e+00 2.409230239953787489e+01 -2.663463284252516328e+00 -9.023354661411937627e+01 -1.003200772666544616e+01 2.409230239953787489e+01 -1.003200772666544616e+01 -2.944043472224603519e+01
-5.369272516737822798e+01 1.084381376323143797e+01 6.578194420722073055e+00 1.084381376323143797e+01 -9.538431747287447138e+00 -7.835598963188275867e+00 6.578194420722073055e+00 -7.835598963188275867e+00 -2.622915119800117267e+01
-2.896953213119651238e+01 2.219220449539208673e+01 1.765630580871284039e+01 2.219220449539208673e+01 -1.345609280841473598e+01 -1.391715433797323520e+01 1.765630580871284039e+01 -1.391715433797323520e+01 -3.562018872389769797e+01
-1.573560713856119797e+01 -3.560783686993555364e+01 -2.501013350630317600e+00 -3.560783686993555364e+01 -2.033814966413246594e+01 -3.400749649562685661e+00 -2.501013350630317600e+00 -3.400749649562685661e+00 -1.284304453084759778e+01
-2.547447811677609408e+01 -1.381594230845508520e+01 5.126858275921494901e+00 -1.381594230845508520e+01 -2.907285577748574212e+01 -5.436988364946366836e+00 5.126858275921494901e+00 -5.436988364946366836e+00 -1.564726290422128407e+00
-4.004171371507145238e+01 2.072948629109138707e+01 -3.562638259493184023e+00 2.072948629109138707e+01 3.070568149142640735e+01 1.680345320357103134e+01 -3.562638259493184023e+00 1.680345320357103134e+01 -3.771185976604434131e+01
-5.654323524973257520e+01 1.241855732143049451e+00 1.218635111075856337e+01 1.241855732143049451e+00 -5.050909819173648430e+01 4.458176535491221948e+00 1.218635111075856337e+01 4.458176535491221948e+00 -5.001443877691922779e+01
-5.514136394816182474e+01 7.378985290577165124e+00 6.808708468349149001e+00 7.378985290577165124e+00 -5.625325283824032851e+01 4.719249788715127458e+00 6.808708468349149001e+00 4.719249788715127458e+00 -5.273875237422914353e+01
-2.832340603619639552e+01 -7.956507762460368838e+00 -2.318941150478757862e+01 -7.956507762460368838e+00 -4.392954063158541089e+01 -6.268006061350575031e+00 -2.318941150478757862e+01 -6.268006061350575031e+00 -5.459888484365750116e+01
-5.920966397199844522e+01 -5.383995001662936986e+00 -1.560561910630635651e+01 -5.383995001662936986e+00 -2.591923786373588356e+01 -1.263704599192869438e+01 -1.560561910630635651e+01 -1.263704599192869438e+01 -9.328066204659073435e+01
-4.111798433162125832e+01 2.048740961914164771e+00 1.227330275466187182e+01 2.048740961914164771e+00 -2.767735383438636987e+01 2.074029270946782333e+01 1.227330275466187182e+01 2.074029270946782333e+01 -3.653973172288422688e+01
-7.105925575207336031e+00 -1.886391849783901176e+00 -1.405550767403769541e+01 -1.886391849783901176e+00 4.672165496606059065e+00 4.689983296145744163e+00 -1.405550767403769541e+01 4.689983296145744163e+00 2.620864949497137442e+00
-5.054126795791844984e+01 2.303732920428515385e+01 -1.269467339436964970e+01 2.303732920428515385e+01 -3.791284807334596252e+01 -1.168901354487753430e+01 -1.269467339436964970e+01 -1.168901354487753430e+01 -1.091657570048892865e+02
-4.877348284592991234e+01 -1.623323191211346050e-01 1.273418967892879827e+01 -1.623323191211346050e-01 -6.721803677607418592e+01 -3.951633442012543185e+01 1.273418967892879827e+01 -3.951633442012543185e+01 -2.555736211898245358e+01
-5.564823864556024802e+01 1.296862621638667434e+01 -6.852339936589475933e+00 1.296862621638667434e+01 -6.433045832012412291e+01 8.437747971383698697e+00 -6.852339936589475933e+00 8.437747971383698697e+00 -3.341633321413448954e+01
-3.817281304349198479e+01 4.662079333257623581e+00 3.128522051679971483e+01 4.662079333257623581e+00 -4.006385719180348559e+01 -1.641642456220564128e+01 3.128522051679971483e+01 -1.641642456220564128e+01 -2.322517075806890219e+01
-4.708650147283938026e+01 2.725404405895422855e+01 -2.055169770765459347e+01 2.725404405895422855e+01 -3.081244042454655485e+01 1.148672713661550659e+01 -2.055169770765459347e+01 1.148672713661550659e+01 -8.574668035771607322e+01
-7.756634463261573842e+01 2.984759662602770902e+01 1.056704002333659531e+01 2.984759662602770902e+01 -6.798047180863372319e+01 -5.251497758203167443e+00 1.056704002333659531e+01 -5.251497758203167443e+00 -4.142133707484166649e+01
-2.825961681011065352e+01 -2.257202799437548535e+01 -1.827019861729482386e+01 -2.257202799437548535e+01 -7.359729334545528445e+01 -3.466836827681054167e+00 -1.827019861729482386e+01 -3.466836827681054167e+00 -5.870306659894078649e+01
-7.683627197205765924e+01 2.286058450247356788e+01 -2.657481836688806442e-01 2.286058450247356788e+01 -2.626798211471234623e+01 -2.622000844059604674e+01 -2.657481836688806442e-01 -2.622000844059604674e+01 -6.160428867798636787e+01
-5.753604184166596269e+01 1.503759052099625926e+01 -8.951097746490818352e+00 1.503759052099625926e+01 -5.426371577098588972e+00 6.902025011249901532e+00 -8.951097746490818352e+00 6.902025011249901532e+00 -3.099305334363595676e+01
-5.415509386105306788e+01 -6.287566730148657079e-01 1.415400945316966030e+01 -6.287566730148657079e-01 -5.396199331091349194e+01 2.767651457379659874e+01 1.415400945316966030e+01 2.767651457379659874e+01 -4.063248135861334731e+01
-2.535527627807872975e+01 -1.461423256022610140e+01 -1.959232990709242017e+01 -1.461423256022610140e+01 -4.214629967046691661e+01 -7.399401163442591134e+00 -1.959232990709242017e+01 -7.399401163442591134e+00 -3.352702811632759250e+01
-5.047270401792889061e+01 9.095352440822916051e+00 1.004431282999784614e+01 9.095352440822916051e+00 -8.604844050876832284e+01 2.128255789388614971e+01 1.004431282999784614e+01 2.128255789388614971e+01 -7.868195333246492851e+01
-5.064261299198202693e+01 -3.079501728315560527e+01 -9.128472382647055738e+00 -3.079501728315560527e+01 -3.561003673767334732e+01 1.254773211195647953e+01 -9.128472382647055738e+00 1.254773211195647953e+01 -4.998242145016904914e+01
-5.664526473939866946e+01 1.441271329801309786e+00 -5.852858684548407631e+00 1.441271329801309786e+00 -6.317506141487295679e+01 -1.411470943745679740e+01 -5.852858684548407631e+00 -1.411470943745679740e+01 -6.219756304245638034e+01
-3.659800377592814868e+01 1.221850815334718732e+01 -3.061903397200373789e+01 1.221850815334718732e+01 -5.806069635015914798e+01 8.369147773759905817e+00 -3.061903397200373789e+01 8.369147773759905817e+00 -6.045163364287880370e+01
-1.055920660771975719e+02 2.504093951505881321e+01 -9.254789234240773155e+00 2.504093951505881321e+01 -2.233870535881437647e+01 -5.574822002699105994e+00 -9.254789234240773155e+00 -5.574822002699105994e+00 -4.601012549189241696e+01
-6.168951033907041648e+01 1.484123234020301574e+01 -3.878413587521987438e+01 1.484123234020301574e+01 -2.512840151297326585e+01 1.989608308094699796e+00 -3.878413587521987438e+01 1.989608308094699796e+00 -3.650963078290606489e+01
-3.507703631678366207e+01 -1.147353849035189732e+01 1.140254184234996471e+00 -1.147353849035189732e+01 1.152963441086619589e+01 2.385666861363649005e+01 1.140254184234996471e+00 2.385666861363649005e+01 -3.358101351506383736e+01
-1.002818482757484873e+02 3.065428520377109578e+01 3.298641858596180043e+01 3.065428520377109578e+01 -5.430146787675987241e+01 -3.394519436475090579e+00 3.298641858596180043e+01 -3.394519436475090579e+00 -4.521114329572217372e+01
-3.784400381278062753e+01 -1.681489735733232393e+01 -1.085130232623055768e+01 -1.681489735733232393e+01 -5.493611105173258835e+01 -1.061784129570560609e+01 -1.085130232623055768e+01 -1.061784129570560609e+01 -3.245888675292260661e+00
-7.346214321987842766e+01 -5.171102993070950227e+00 5.001885079976386983e+00 -5.171102993070950227e+00 -5.066880451181311429e+01 -6.306184512929811525e+00 5.001885079976386983e+00 -6.306184512929811525e+00 -9.463687672104454407e+01
-9.372278327844338719e+01 -1.005602191744390161e+01 6.234133539010601410e+00 -1.005602191744390161e+01 -6.965653195239248419e+01 2.283451942120585798e+01 6.234133539010601410e+00 2.283451942120585798e+01 -9.129423482719832350e+01
-2.955271862251368731e+01 1.432673301394876653e+01 1.422327021200588604e+01 1.432673301394876653e+01 -2.842737800006078430e+01 8.901748833395711102e+00 1.422327021200588604e+01 8.901748833395711102e+00 -1.459218583867823327e+01
-6.583395482975954849e+01 3.363719999256307602e+01 -1.836166398583313653e+00 3.363719999256307602e+01 -5.636407802076440987e+01 6.606267369216597629e+00 -1.836166398583313653e+00 6.606267369216597629e+00 -5.004008736279236302e+01
-4.655839787098383908e+01 1.458462837628375253e+00 1.235981450014994154e+00 1.458462837628375253e+00 -7.966360455975805621e+01 -1.576426503881955909e+01 1.235981450014994154e+00 -1.576426503881955909e+01 -4.071879485101427321e+01
-3.615457427947126945e+01 -3.032832271259158574e+01 -1.019877256101939267e+01 -3.032832271259158574e+01 -6.918443277572445993e+01 -3.855912206598407010e+01 -1.019877256101939267e+01 -3.855912206598407010e+01 -4.242904675943947268e+01
-3.703277132715236775e+01 2.975101374369491580e+01 -4.715282525512215273e+00 2.975101374369491580e+01 -4.885463817361459604e+01 4.819921499139265109e+01 -4.715282525512215273e+00 4.819921499139265109e+01 -3.403815662698132516e-01