4.856811000000000433e+00 8.315531000000000006e+00 1.828770999999999924e+00 1.028323100000000068e+01 9.831431000000000253e+00 1.031123099999999937e+01 5.335871000000000031e+00 1.055043099999999967e+01 2.778271000000000157e+00 5.873550999999999966e+00 1.118863100000000088e+01 6.120311000000000057e+00 7.492591000000000001e+00 3.457720999999999822e+00 5.326201000000000185e+00 4.849600999999999829e+00 4.864780999999999800e+00 3.258411000000000168e+00 1.022113099999999974e+01 6.476161000000000278e+00 7.515630999999999950e+00 5.598681000000000019e+00 3.380610000000000004e-01 9.787031000000000702e+00 1.155443099999999923e+01 4.399109999999999965e-01 4.493420999999999665e+00 1.972231000000000067e+00 9.064130999999999716e+00 3.136970999999999954e+00 2.940621000000000151e+00 4.914011000000000351e+00 1.411500999999999895e+00 9.536531000000000091e+00 2.392910000000000037e-01 6.148280999999999885e+00 8.059131000000000711e+00 7.801821000000000339e+00 4.243571000000000204e+00 5.714090999999999809e+00 8.961330999999999491e+00 9.268831000000000486e+00 7.645370999999999917e+00 3.266121000000000052e+00 1.029443099999999944e+01 2.409720999999999780e+00 3.711551000000000045e+00 5.218861000000000416e+00 3.791681000000000079e+00 1.471491000000000104e+00 1.150973100000000038e+01 6.865700999999999610e+00 5.657401000000000124e+00 4.583331000000000266e+00 1.132943099999999959e+01 6.743420999999999665e+00 9.396031000000000688e+00 9.668730999999999298e+00 6.709011000000000280e+00 5.518351000000000006e+00 3.904811000000000032e+00 4.356841000000000186e+00 7.088650999999999591e+00 1.766941000000000095e+00 7.815051000000000414e+00 8.685031000000000390e+00 1.156963099999999933e+01 4.580241000000000007e+00 8.695031000000000176e+00 5.014381000000000199e+00 8.748909999999999743e-01 4.361391000000000240e+00 4.495709999999999984e-01 5.698881000000000085e+00 1.109083099999999966e+01 7.936030999999999835e+00 8.711031000000000191e+00 7.631051000000000251e+00 1.570610000000000062e-01 8.376530999999999949e+00 1.112613100000000088e+01 1.453530999999999906e+00 1.696480999999999906e+00 6.242430999999999841e+00 5.572790999999999606e+00 7.218181000000000402e+00 3.270281000000000216e+00 2.426880999999999844e+00 1.530961000000000016e+00 2.107511000000000134e+00 8.164531000000000205e+00 4.095131000000000299e+00 8.170930999999999500e+00 2.993580999999999825e+00 5.966851000000000127e+00 1.110243099999999927e+01 4.011180999999999663e+00 6.586210999999999594e+00 7.632490999999999914e+00 3.906591000000000147e+00 1.018973100000000009e+01 5.757831000000000365e+00 8.868310000000000359e-01 1.156803099999999951e+01 7.881530999999999842e+00 1.999611000000000027e+00 3.715891000000000055e+00 8.559231000000000478e+00 6.645050999999999597e+00 1.012983099999999936e+01 1.098263099999999959e+01 1.054963099999999976e+01 2.827640999999999849e+00 3.445250999999999841e+00 5.479509999999999659e-01 7.260030999999999679e+00 5.729880999999999780e+00 8.083830999999999989e+00 1.145733099999999993e+01 7.262210000000000054e-01 6.192541000000000295e+00 1.913891000000000009e+00 6.166320999999999941e+00 9.571830999999999534e+00 2.636591000000000129e+00 5.578011000000000053e+00 6.626540999999999570e+00 9.671931000000000722e+00 4.398531000000000191e+00 5.937191000000000329e+00 6.305540999999999840e+00 9.079630999999999119e+00 4.131530999999999842e+00 2.785070999999999852e+00 4.072390999999999650e+00 1.084643100000000082e+01 7.430041000000000118e+00 1.549201000000000050e+00 2.257150999999999907e+00 1.082843100000000014e+01 1.367031000000000107e+00 1.091493099999999927e+01 3.183610000000000051e-01 1.143693099999999951e+01 1.022713099999999997e+01 9.643131000000000341e+00 6.926360999999999990e+00 8.194031000000000731e+00 1.526361000000000079e+00 3.681651000000000007e+00 1.082793099999999953e+01 1.800661000000000067e+00 7.345081000000000415e+00 9.094530999999999921e+00 9.093330999999999165e+00 5.402720999999999663e+00 2.632591000000000125e+00 5.958731000000000222e+00 5.635960999999999999e+00 4.931161000000000350e+00 1.517101000000000033e+00 1.944431000000000020e+00 1.515930999999999917e+00 1.120213099999999962e+01 5.395851000000000397e+00 1.069913099999999950e+01 4.289461000000000190e+00 1.122251000000000110e+00 4.755231000000000208e+00 1.120363099999999967e+01 5.757510000000000128e-01 3.019420999999999911e+00 8.814230999999999483e+00 7.354851000000000028e+00 7.336611000000000438e+00 1.838081000000000076e+00 1.547460999999999975e+00 4.930741000000000263e+00 2.254891000000000201e+00 8.510830999999999591e+00 7.251980999999999788e+00 1.765500999999999987e+00 8.305930999999999287e+00 9.422131000000000256e+00 5.933290999999999649e+00 3.827099999999999946e-02 3.836901000000000117e+00 2.048920999999999992e+00 6.382420999999999900e+00 1.152153099999999952e+01 3.026209999999999734e-01 2.166681000000000079e+00 2.192409999999999914e-01 3.514691000000000010e+00 5.073440999999999867e+00 6.613201000000000107e+00 5.255500999999999756e+00 1.122673099999999913e+01 2.648890999999999885e+00 8.056430999999999898e+00 1.077843099999999943e+01 6.300981000000000165e+00 4.968281000000000169e+00 6.871741000000000099e+00 2.657290999999999848e+00 1.572100999999999971e+00 8.187530999999999892e+00 3.113240999999999925e+00 9.755831000000000586e+00 9.442631000000000441e+00 1.004743099999999956e+01 2.640931000000000139e+00 9.266531000000000518e+00 7.642431000000000196e+00 1.098113099999999953e+01 7.379020999999999830e+00 8.937431000000000125e+00 4.933000999999999969e+00 3.644550999999999874e+00 7.253910000000000080e-01 3.043851000000000084e+00 1.047363099999999925e+01 1.670730999999999966e+00 3.476720999999999950e+00 3.068661000000000083e+00 9.146430999999999756e+00 8.798631000000000313e+00 2.712631000000000014e+00 8.069630999999999332e+00 6.339750999999999692e+00 7.968430999999999820e+00 3.369151000000000007e+00 7.454400999999999833e+00 3.685411000000000215e+00 1.044910000000000005e-01 7.541311000000000320e+00 3.172760999999999942e+00 4.598950999999999567e+00 1.067323099999999947e+01 7.968731000000000009e+00 8.524931000000000481e+00 8.903731000000000506e+00 3.407109999999999861e-01 9.109230999999999412e+00 1.747830999999999912e+00 1.120183100000000032e+01 1.016363100000000053e+01 3.978651000000000160e+00 7.136681000000000274e+00 7.471871000000000151e+00 5.271080999999999683e+00 1.889661000000000035e+00 3.110351000000000088e+00 3.662691000000000141e+00 1.099383100000000013e+01 7.116609999999999880e-01 5.490961000000000425e+00 2.073370999999999853e+00 1.060433100000000017e+01 9.897731000000000279e+00 1.172390999999999961e+00 9.939731000000000094e+00 2.011410999999999838e+00 1.717360999999999915e+00 1.289941000000000004e+00 1.206930999999999976e+00 9.445099999999999330e-02 2.041240999999999861e+00 8.753830999999999918e+00 9.218309999999999560e-01 9.051930999999999727e+00 7.561071000000000097e+00 9.820330999999999477e+00 3.132410999999999834e+00 1.127143099999999976e+01 3.620451000000000086e+00 4.627830999999999584e+00 8.850930999999999216e+00 1.134543099999999960e+01 7.325310000000000432e-01 9.362230999999999526e+00 6.972641000000000311e+00 5.516471000000000124e+00 3.228730999999999796e+00 1.074543099999999995e+01 8.191031000000000617e+00 1.154363099999999953e+01 9.753631000000000384e+00 2.025201000000000029e+00 8.600099999999999412e-02 1.008923099999999984e+01 5.744091000000000058e+00 3.801921000000000106e+00 1.354870999999999936e+00 8.742231000000000307e+00 1.105823099999999926e+01 3.117040999999999951e+00 6.602910999999999753e+00 7.393690999999999569e+00 9.374609999999999888e-01 4.256340999999999930e+00 4.631221000000000032e+00 9.261131000000000668e+00 5.025331000000000437e+00 6.944471000000000060e+00 5.417811000000000377e+00 5.257099999999999967e-02 9.381230999999999653e+00 4.684521000000000157e+00 1.121663099999999957e+01 5.537561000000000178e+00 4.174460999999999977e+00 1.043753099999999989e+01 1.152843099999999943e+01 8.613231000000000748e+00 5.804600999999999900e+00 8.188430999999999571e+00 7.420111000000000345e+00 5.521380999999999872e+00 4.332811000000000412e+00 5.186099999999999738e-02 1.751099999999999879e-02 4.822351000000000276e+00 5.314981000000000400e+00 4.989071000000000033e+00 1.933270999999999962e+00 7.050091000000000108e+00 8.931031000000000830e+00 6.396260999999999974e+00 6.815910999999999831e+00 1.036193100000000022e+01 1.061873100000000036e+01 1.158213100000000040e+01 9.873830999999999136e+00 6.674501000000000239e+00 1.003400999999999987e+00 2.310931000000000068e+00 1.037713100000000033e+01 2.811351000000000155e+00 6.257170999999999594e+00 2.897860999999999798e+00 5.217621000000000286e+00 8.954330999999999818e+00 1.135803100000000043e+01 1.791711000000000054e+00 2.009901000000000160e+00 3.791709999999999803e-01 8.671830999999999179e+00 4.193560999999999872e+00 2.697531000000000123e+00 1.103773100000000085e+01 3.242821000000000176e+00 1.001653100000000052e+01 8.105131000000000085e+00 5.742001000000000133e+00 7.691811000000000398e+00 8.764331000000000316e+00 9.454031000000000518e+00 7.854631000000000363e+00 4.781181000000000125e+00 3.222650999999999932e+00 6.119441000000000130e+00 8.725110000000000365e-01 9.695130999999999943e+00 4.575980999999999632e+00 3.185410000000000186e-01 6.036709999999999576e-01 6.909920999999999758e+00 2.002190999999999832e+00 4.653040999999999983e+00 1.140213100000000068e+01 9.055630999999999986e+00 1.121703100000000042e+01 5.157740999999999687e+00 2.886261000000000188e+00 3.351700999999999819e+00 4.085590999999999973e+00 8.359531000000000489e+00 1.037573100000000004e+01 1.335741000000000067e+00 1.076023099999999921e+01 5.546320999999999835e+00 7.858531000000000155e+00 4.523131000000000235e+00 5.164881000000000277e+00 7.727200999999999986e+00 4.838310000000000111e-01 5.920360999999999763e+00 5.803590999999999944e+00 3.340491000000000099e+00 5.998300999999999661e+00 1.493640999999999996e+00 9.063031000000000503e+00 4.973001000000000005e+00 6.249609999999999888e-01 1.121293099999999932e+01 4.783009999999999762e-01 3.343961000000000183e+00 3.695101000000000191e+00 4.682341000000000086e+00 4.014440999999999704e+00 4.234581000000000373e+00 2.337091000000000030e+00 8.205631000000000341e+00 2.111031000000000102e+00 7.684600999999999793e+00 7.888531000000000404e+00 3.303809999999999802e-01 1.123923100000000019e+01 1.057383100000000020e+01 2.145040999999999976e+00 8.705230999999999497e+00 2.224000999999999895e+00 9.451410000000000089e-01 8.957031000000000631e+00 6.426690999999999931e+00 1.054503099999999982e+01 1.040973100000000073e+01 9.667531000000000319e+00 5.467470999999999748e+00 1.324351000000000056e+00 3.018091000000000079e+00 5.849480999999999931e+00 1.190050999999999970e+00 4.684460999999999764e+00 8.230430999999999386e+00 7.247520999999999880e+00 2.075591000000000186e+00 2.911300999999999917e+00 7.541580999999999868e+00 4.521710999999999814e+00 4.414210999999999885e+00 7.320921000000000234e+00 1.869591000000000003e+00 7.022950999999999944e+00 8.161630999999999858e+00 7.655831000000000053e+00 8.724930999999999770e+00 2.776901000000000064e+00 9.158709999999999907e-01 3.265970999999999957e+00 5.375290999999999819e+00 9.461130999999999958e+00 7.914531000000000205e+00 2.208321000000000200e+00 4.991131000000000206e+00 4.844051000000000329e+00 4.918980999999999604e+00 7.352630999999999695e+00 6.737690999999999875e+00 1.004193099999999994e+01 1.103753099999999954e+01 7.291750999999999650e+00 7.804191000000000322e+00 1.016023099999999957e+01 2.453309999999999935e-01 6.289540999999999826e+00 6.223271000000000441e+00 1.036303099999999944e+01 7.018511000000000166e+00 6.352710000000000301e-01 1.053320999999999952e+00 6.695851000000000219e+00 2.443391000000000091e+00 1.092193100000000072e+01 1.672471000000000041e+00 8.648930999999999258e+00 7.558900999999999648e+00 4.619470999999999883e+00 1.118493100000000062e+01 3.867520999999999987e+00 1.031283099999999919e+01 2.422910000000000064e-01 5.036540999999999713e+00 3.470441000000000109e+00 7.073081000000000174e+00 1.035943100000000072e+01 9.278230999999999895e+00 8.743631000000000597e+00 1.059543099999999960e+01 6.670321000000000389e+00 5.969930999999999877e+00 7.814650999999999570e+00 4.457800999999999902e+00 4.439970999999999890e+00 2.019981000000000027e+00 2.819970999999999783e+00 1.069783100000000076e+01 1.029783100000000040e+01 1.120083100000000087e+01 9.181530999999999665e+00 7.712820999999999927e+00 3.468900999999999790e+00 5.599891000000000396e+00 6.732261000000000273e+00 1.119493100000000041e+01 5.314880999999999744e+00 9.842831000000000330e+00 3.746100999999999903e+00 6.579841000000000051e+00 4.716320999999999763e+00 3.472570999999999852e+00 9.001830999999999250e+00 6.144110999999999656e+00 1.037903099999999945e+01 7.718091000000000257e+00 2.812390999999999863e+00 7.800380999999999787e+00 9.911730999999999625e+00 8.259531000000000844e+00 9.078231000000000606e+00 8.891731000000000051e+00 6.797680999999999862e+00 8.450030999999999182e+00 5.523609999999999909e-01 1.098633099999999985e+01 9.557930999999999955e+00 1.597631000000000023e+00 6.593900999999999790e+00 2.003581000000000056e+00 4.969840999999999731e+00 2.546761000000000053e+00 9.348731000000000790e+00 3.375411000000000161e+00 8.215230999999999284e+00 2.835601000000000038e+00 1.086043100000000017e+01 5.055951000000000306e+00 6.593701000000000256e+00 1.016193099999999916e+01 3.137681000000000164e+00 1.293241000000000085e+00 9.802309999999999635e-01 5.125250999999999557e+00 8.095731000000000677e+00 8.056730999999999199e+00 2.944240999999999886e+00 4.968181000000000402e+00 1.906460999999999961e+00 3.294710999999999945e+00 9.569831000000000643e+00 1.078423100000000012e+01 9.561930999999999514e+00 4.430020999999999987e+00 9.081830999999999321e+00 9.951131000000000171e+00 1.123093100000000000e+01 3.104311000000000043e+00 7.211621000000000059e+00 1.704760999999999971e+00 2.625760999999999790e+00 2.069590999999999958e+00 8.583631000000000455e+00 5.284500999999999671e+00 8.693130999999999275e+00 8.149430999999999869e+00 1.891510000000000136e-01 3.973730999999999902e+00 1.157303100000000029e+01 9.246831000000000245e+00 1.008433100000000060e+01 6.973071000000000019e+00 4.030471000000000359e+00 1.922061000000000019e+00 4.807509999999999839e-01 8.877131000000000327e+00 3.446651000000000131e+00 9.508630999999999389e+00 3.965320999999999874e+00 6.001890999999999643e+00 8.166131000000000029e+00 7.292309999999999626e-01 8.612130999999999759e+00 6.095890999999999948e+00 6.704510000000000192e-01 5.260990999999999751e+00 3.410560999999999954e+00 1.106093100000000007e+01 7.612609999999999655e-01 1.440309999999999924e-01 9.626609999999999889e-01 3.269371000000000027e+00 8.418831000000000842e+00 2.422890999999999906e+00 4.870401000000000202e+00 6.925510000000000277e-01 1.664910000000000001e-01 1.087183100000000024e+01 1.124973100000000059e+01 8.619631000000000043e+00 8.028509999999999813e-01 6.788071000000000410e+00 1.119053100000000001e+01 1.012813099999999977e+01 8.449730999999999881e+00 5.707500999999999713e+00 2.618870999999999949e+00 8.980530999999999153e+00 2.737620999999999860e+00 1.022283099999999934e+01 6.738501000000000296e+00 5.972901000000000238e+00 9.411909999999999998e-01 7.522490999999999595e+00 4.219691000000000081e+00 6.755131000000000441e+00 3.222601000000000049e+00 7.591491000000000433e+00 8.100231000000000847e+00 4.369710999999999679e+00 1.120213099999999962e+01 6.584581000000000017e+00 2.023731000000000169e+00 3.330341000000000218e+00 1.001233099999999965e+01 1.134583100000000044e+01 7.056250999999999607e+00 1.078713100000000047e+01 7.001860999999999891e+00 8.227631000000000583e+00 6.823361000000000232e+00 5.600009999999999710e-01 1.071453099999999914e+01 4.521450999999999887e+00 1.023163100000000014e+01 7.264460999999999835e+00 8.704931000000000196e+00 6.380791000000000324e+00 1.132413099999999950e+01 7.390181000000000111e+00 7.770951000000000164e+00 9.117831000000000685e+00 4.866831000000000351e+00 1.041563099999999942e+01 1.403941000000000106e+00 8.636331000000000202e+00 7.632940999999999754e+00 6.699491000000000085e+00 4.799991000000000341e+00 6.185551000000000244e+00 7.891830999999999818e+00 2.187161000000000133e+00 3.413390999999999842e+00 3.425551000000000013e+00 6.255821000000000076e+00 5.803670999999999580e+00 9.995331000000000188e+00 5.420220999999999734e+00 3.836309999999999998e-01 1.028661000000000048e+00 7.053620999999999697e+00 7.392100000000000060e-02 1.108653100000000080e+01 8.795730999999999966e+00 9.357231000000000520e+00 9.142431000000000196e+00 1.384581000000000062e+00 1.596651000000000042e+00 2.501481000000000066e+00 8.109030999999999878e+00 5.169241000000000419e+00 9.214100000000000068e-02 1.841261000000000037e+00 4.245790999999999649e+00 7.215800999999999910e+00 2.663561000000000067e+00 6.695950999999999986e+00 9.051330999999999349e+00 1.020143099999999947e+01 4.611881000000000341e+00 5.846281000000000283e+00 8.725630999999999915e+00 3.688701000000000008e+00 1.807250999999999941e+00 1.311841000000000035e+00 1.685801000000000105e+00 5.719890999999999615e+00 1.069743099999999991e+01 9.341030999999999196e+00 9.924130999999999148e+00 3.506581000000000170e+00 1.395470999999999906e+00 9.945230999999999710e+00 7.607209999999999805e-01 3.314861000000000057e+00 8.821730999999999767e+00 1.783210000000000073e-01 1.083913100000000007e+01 3.060331000000000135e+00 1.703710999999999975e+00 9.651431000000000537e+00 1.663740999999999914e+00 3.019950999999999830e+00 1.070083100000000087e+01 5.193761000000000294e+00 7.642991000000000312e+00 1.602581000000000033e+00 6.662150999999999712e+00 6.199710999999999750e+00 8.233330999999999733e+00 1.116073100000000018e+01 6.117161000000000293e+00 2.753461000000000158e+00 1.230110999999999954e+00 6.748550999999999966e+00 4.078381000000000256e+00 1.664581000000000088e+00 5.094101000000000212e+00 5.788011000000000017e+00 2.376130999999999993e+00 1.303380999999999901e+00 8.737409999999999899e-01 6.834070999999999785e+00 8.700030999999999182e+00 2.593951000000000118e+00 3.945981000000000183e+00 6.083110000000000461e-01 3.725321000000000105e+00 1.820381000000000027e+00 8.911730999999999625e+00 5.431880999999999737e+00 1.002443099999999987e+01 1.604710000000000025e-01 4.522740999999999900e+00 9.530431000000000097e+00 2.429561000000000082e+00 1.531940999999999997e+00 5.481610000000000094e-01 1.314491000000000076e+00 1.467931000000000097e+00 7.887131000000000114e+00 1.155553100000000022e+01 2.666109999999999869e-01 4.908011000000000124e+00 7.594410000000000327e-01 1.079833099999999924e+01 2.484560999999999797e+00 4.930931000000000175e+00 7.667771000000000114e+00 4.499811000000000227e+00 1.090893100000000082e+01 2.661690999999999807e+00 8.468030999999999864e+00 4.196450999999999709e+00 5.846241000000000021e+00 5.664190999999999754e+00 5.612550999999999846e+00 9.573131000000000057e+00 3.805381000000000125e+00 3.372650999999999843e+00 2.691161000000000136e+00 3.028650999999999982e+00 3.980731000000000019e+00 1.082973100000000066e+01 9.385809999999999986e-01 1.191770999999999914e+00 2.520591000000000026e+00 1.202240999999999893e+00 1.096593099999999943e+01 3.621240999999999932e+00 4.844810999999999979e+00 1.044513099999999994e+01 9.772930999999999813e+00 5.751230999999999760e+00 4.530860999999999805e+00 2.159480999999999984e+00 8.776531000000000304e+00 9.687730999999999426e+00 6.168810000000000127e-01 2.484121000000000024e+00 1.796100000000000127e-02 1.254170999999999925e+00 1.070223099999999938e+01 6.753701000000000398e+00 5.252691000000000443e+00 4.175021000000000093e+00 7.202760999999999747e+00 1.127643100000000054e+01 3.332990999999999815e+00 9.569931000000000409e+00 8.160009999999999764e-01 8.692430999999999131e+00 5.614791000000000309e+00 7.307790999999999926e+00 3.261880999999999808e+00 8.812830999999999193e+00 5.238881000000000121e+00 3.628311000000000064e+00 9.373231000000000535e+00 3.196709999999999829e-01 6.795331000000000010e+00 4.289450999999999681e+00 1.088013100000000044e+01 7.037541000000000047e+00 6.339131000000000071e+00