-7.777484268080157926e+04
-7.780013145706664363e+04
-7.778248893933693762e+04
-7.778259322904456349e+04
-7.773801398746720224e+04
-7.772140483058964310e+04
-7.781150095801745192e+04
-7.776599535189932794e+04
-7.772459512368254946e+04
-7.780851791381258226e+04
-7.772304818804193928e+04
-7.772905092540475016e+04
-7.771966962172639614e+04
-7.776654186471125286e+04
-7.771899612200543925e+04
-7.773605803823158203e+04
-7.773259946719722939e+04
-7.779178841726425162e+04
-7.774170867762478883e+04
-7.773557920888855006e+04
-7.776007632213145553e+04
-7.772149795216131315e+04
-7.773066044326775591e+04
-7.772009288260640460e+04
-7.773025786515453365e+04
-7.771757117487250071e+04
-7.773258308697068423e+04
-7.772830831874818250e+04
-7.772341382346075261e+04
-7.777399172089005879e+04
-7.772221970999235054e+04
-7.772169089077870012e+04
-7.778358198242034996e+04
-7.777938415758020710e+04
-7.778919205593195511e+04
-7.777179039649051265e+04
-7.773401805261838308e+04
-7.774916585481543734e+04
-7.772459077553304087e+04
-7.780457792079111096e+04
-7.779386818905321707e+04
-7.776508197028108407e+04
-7.773469232908186677e+04
-7.772411395704851020e+04
-7.775455360165535240e+04
-7.772399848765425850e+04
-7.780773463332792744e+04
-7.773344819058678695e+04
-7.773061846454754414e+04
-7.774230360024784750e+04
-7.780005991228103812e+04
-7.771910155226188363e+04
-7.773296496712026419e+04
-7.772267939386935905e+04
-7.774533055825323390e+04
-7.773154716785435448e+04
-7.772035303852168727e+04
-7.773194765840559558e+04
-7.773236740510170057e+04
-7.775703278907385538e+04
-7.775690474108885974e+04
-7.773088305894582300e+04
-7.773591147403512150e+04
-7.772055566068565531e+04
-7.780165167987659515e+04
-7.773322568801547459e+04
-7.772955645177664701e+04
-7.774138121902891726e+04
-7.774990289294967079e+04
-7.772884647642108030e+04
-7.777367284691240638e+04
-7.772145554706361145e+04
