-3.971933051592874131e-01 1.720993754297676925e-02 2.260591219360503223e-01 3.539936262724259763e-01 -1.523316014063835100e+00 8.790705279212874812e-01 -1.295954371158609675e-01 1.526716041165369964e+00 -8.613849362541545762e-01 -7.439194506352841962e-01 4.214089851752388372e-01 1.086938065046237911e+00 -5.208402375094870473e-01 9.136981481598453747e-02 3.499986458501901931e-01 8.684503283254019212e-01 -1.691317564936414497e+00 -5.322271401314445649e-01 -2.620910788373867484e-01 5.151858669697901849e-01 -4.262334035458676951e-01 8.859888528795523133e-01 9.569662183964502411e-01 1.381860077084559935e+00 -1.982617920762378638e+00 -1.797165262850358436e-01 3.317011315800891258e-01 2.026692803237687135e-01 -1.676935841104635783e+00 -2.539859325617682129e-01 1.300743822523354520e+00 9.879973792357139573e-01 8.235542354324965064e-01 -1.550716776939270236e+00 -9.790679372184498686e-01 6.940539291414667133e-02 1.275429252925434076e+00 1.941013354408632763e-01 -4.624160271049096993e-01 -1.649021371775112099e+00 -3.087524913067543619e-01 1.978723213371722078e+00 -1.183200689582594833e+00 1.393047462084709309e+00 -4.399723515341925073e-01 2.091890842590920785e-01 1.632738059888058924e-01 6.786684465525499865e-01 1.121425817261260116e+00 -3.350343099939045999e-01 -2.565395524326425369e-01 -2.762395521710928836e+00 2.599771176434350073e-01 6.012083009889115370e-01 2.295877042062758333e-01 -6.815233997388354670e-01 1.963163409974060247e+00 -5.551906928043475187e-01 2.892902672083145707e-02 1.056079682353694649e+00 2.208378280486391620e+00 -5.276588036568478080e-01 5.837849618659080031e-01 3.130390348515809107e-01 -7.803103335676053742e-01 -6.060640868207010090e-01 -5.494884997418977290e-01 6.381298596575883941e-01 7.196729173788469769e-01 4.445437733328378993e-01 5.500217465816271689e-01 -3.538830688273518765e-01 -6.373703557209630111e-01 1.390416709112620164e-01 -1.571390504947452582e+00 1.906668555541194632e+00 7.475688747640790721e-01 2.239554451555938464e+00 1.425342063121866065e+00 -1.377141588172932085e+00 1.801093908805549981e-01 -9.862917092575241851e-01 3.216445178437440933e-01 2.169318078031373886e+00 7.017440993325512189e-01 -1.258029567953469652e+00 2.269564370135122508e-02 -1.631107980349059405e-01 -1.139179800278136367e+00 -3.667344719310353107e-01 7.068940193903053282e-02 4.024090454634111635e-01 -1.296800264168595174e+00 3.804667350505880896e-01 1.994577150995348047e+00 -7.561337343229360686e-01 -1.637098651210051325e-01 8.005387464714423806e-02 -7.417633233460019238e-02 -1.438079823456426709e+00 2.161074092173569661e-01 -2.001490847967540010e-01 7.701925275709635699e-01 1.059215400028401088e+00 -1.534789305759153011e-01 2.296149579020382858e-01 -1.063987367890204094e+00 9.656740313028914224e-01 9.674264953624844843e-01 -1.697579744313681749e+00 1.208754886014955066e+00 -4.565076315518798999e-01 6.887739112529974728e-01 1.057729302278335393e+00 -2.513253547905431318e-01 -4.630048097775136262e-01 -1.562421467938231556e+00 -4.975054175094050235e-01 1.084090310949398894e+00 1.183268566711663583e+00 2.588847586640353082e+00 6.192157947984462396e-01 6.862434313124875507e-01 8.919466136173594129e-02 1.743413775717355119e-01 1.066158407579054668e+00 7.363094988694627308e-01 7.638856109949920814e-01 -3.404809353809970518e-02 -1.546858064995846882e-01 1.809736929906970770e+00 -2.527461465149140052e-01 -1.008082324571291988e+00 -4.515916819011430716e-01 -7.637889375081365895e-01 -1.702749718977751181e+00 -5.963448018470005607e-01 -2.584403177348374658e+00 -1.391679120869164121e+00 -2.987976932640125094e-01 -8.718092177729553915e-01 1.048218276677914007e+00 4.213786461554278051e-01 1.465122688742226675e-01 1.422893858489318264e+00 1.685453392361414560e+00 1.258064020738678623e+00 1.359520274090144643e+00 1.256031306411339532e+00 1.860512107774444368e-01 1.354544674841135221e-01 8.987430682757054923e-01 -4.318008707915295674e-01 7.032723631779476126e-01 1.109071151329398160e-02 -9.245291782323838969e-01 -1.386784768486767572e+00 1.469967161719171189e+00 1.176552330478580766e-01 -1.255284657991583286e-01 4.871263874099834162e-02 3.035496065194997692e-02 8.690026013300975460e-01 -6.310469840833992095e-01 1.210039923481188495e+00 -1.344997139572805978e+00 -1.788417854951960928e+00 -1.554226847265204325e-01 -1.494851842832989997e+00 -2.481572412133266625e-01 -2.314455835041954665e-02 3.174916716743560463e-01 8.771473425976729354e-02 1.010404030917848361e+00 -1.412861413124687049e+00 2.437344291896878790e-01 7.892485173363402717e-01 7.699750122255385465e-01 -5.800409211329567855e-03 7.546532930002924910e-01 1.667170276270206752e-01 9.761641330680617124e-01 2.840894907258264546e+00 1.138034630835438765e+00 -1.646188015857166675e+00 -2.444049729495791357e-01 -1.324656112341195513e+00 7.619259160034692890e-02 -1.647054477694142705e+00 -1.510276406193188370e-01 -2.662095750657005766e+00 1.078325897185302834e-01 -8.113126980490822371e-01 3.876503978770308445e-02 1.487871811393753352e-01 -4.160559479509532560e-02 -7.146217276906475790e-01 5.851486750953802662e-01 5.626294090854727648e-02 -1.292638162027061499e+00 4.860907469710101791e-01 -2.681763663025351144e-02 -8.184536805595196141e-01 -5.931952002140757907e-01 -3.642522773118855195e+00 -6.894850784461949988e-01 3.884880633562201591e-01 1.311481778653760921e+00 -6.946756219372555163e-01 1.344063314827435907e+00 -1.651358504741911037e+00 4.460113591386122289e-01 -2.167542988262091339e-02 2.665369279472548758e+00 -6.132611193846876363e-01 1.081313519305677484e-01 -2.619054451737971578e-01 -8.405389443199269284e-01 1.245597768920393200e+00 5.823919380579742899e-01 1.877985326302900049e-02 -1.615365628611856952e+00 1.055718185219336025e+00 -2.395034214777357756e-02 -1.124747682820230965e+00 1.976121770978094272e+00 3.936626660063628491e-01 -5.517227885737440579e-02 -5.342264301149242112e-01 -6.562293989679055528e-01 1.551099871341969028e+00 -8.697749607835920660e-01 1.272327473815262122e+00 1.698347990001777719e+00 4.093196571115545815e-03 1.664823887331261965e+00 1.529807021641371945e+00 -8.713176228078818308e-01 -1.104706960462682241e+00 -1.809835146055850830e+00 -1.306084004230771090e+00 2.097675825182007403e-01 -2.238861282086357818e+00 8.114823908717542222e-01 -1.061665147322973235e-01 -2.982824441478996724e-01 1.026173636350813156e+00 -4.832347653433750612e-01 1.079831535321009950e+00 -6.147960680988560078e-01 -1.362540292113029405e+00 -2.853456804122055934e-01 -1.197113444158989681e+00 5.627667060056344983e-01 8.897642610736642421e-01 -1.071857001096781087e-01 -8.673103010894517295e-02 7.937376638270235985e-01 6.986088958785197089e-01 -5.053143726763599242e-01 -3.059679863529113364e-01 -1.598083185953738550e+00 -4.731755805036561568e-01 -1.768961287280943262e+00 -5.011553558588747181e-01 8.079651214563734474e-01 -1.536355107713807344e+00 -1.427209198391931610e-01 1.888583414409771011e-01 -1.060854221318871415e+00 4.623682045821567166e-01 -8.074853535668192750e-01 -5.439858243012560823e-01 -1.481540726446068268e+00 7.769308752930612072e-02 4.144958024237216376e-01 -1.160935448586020435e-01 2.135471044777106919e-01 -4.414440511053649430e-01 -1.508186099150275794e+00 -3.454791603396959454e-01 -3.927951757280372935e-01 6.686298305398216124e-01 -1.274664092561386353e+00 3.257402855182334744e-01 6.858464529515703179e-01 7.071840398508718595e-01 1.774133318827712247e-01 -7.128450952593405887e-01 7.160142372779064734e-01 1.014608813375387497e-01 -8.922392051812997327e-01 -5.312254382570057443e-01 3.269703013722671803e-01 1.034420707532666350e+00 -8.227978168199197029e-01 -2.730464988911504687e+00 1.375961965945025345e-01 8.148700766770945736e-02 -1.612723562784923015e+00 -6.174067664646289977e-01 -6.134688645372918803e-01 2.034478104253603092e-01 7.100647040708955027e-01 -1.610193082844412871e+00 -2.591857320249742469e-01 -7.075959306113571712e-01 2.612993846865212078e+00 6.077985531566775235e-01 -7.640434767421443452e-01 -7.373050300958045034e-01 3.313773268211907208e+00 -1.607205460724038693e+00 -9.308695191522148304e-01 3.664825038004012603e-01 5.231912544345046490e-01 -7.875546744336701932e-02 -3.273544242163153317e-01 2.210634680807252728e-01 9.390667109286160441e-01 -1.162375780696032423e+00 -4.448116823043895551e-01 -9.897308171303409452e-02 -1.077945373885978025e-01 1.826707754836182973e+00 -1.910648623563862281e-01 2.311022383596560204e+00 8.004369307778392839e-01 9.268503703582652298e-01 -1.356121275429959638e+00 2.903860714662350739e-01 -2.740765343247688057e-01 -5.105583951175955981e-01 8.261880737286338983e-01 9.763163423877917468e-01 7.113086038831478719e-01 9.954659203159755831e-01 2.496682272440509998e+00 5.695230514513490716e-01 -5.751224003788460992e-01 -5.531055279681824643e-01 1.449383422329072912e+00 -5.069177127402717531e-01 2.216291108229648532e-01 1.023643670630977748e-01 1.830059959414964341e-02 1.031444398267136464e-01 5.171203651482495500e-01 -5.185288155764261608e-01 8.450712853472902575e-01 -1.151476873494425179e+00 4.567230900146056483e-01 5.597600577202939132e-01 5.812287708916599044e-02 6.581099039755148317e-01 -2.015296644643583601e+00 -6.351190976068495919e-01 -8.371065213158821461e-01 8.433692149138238836e-01 7.324991236694670116e-01 -2.181838323020510451e-01 8.002867783408083857e-02 -5.488169275406568071e-01 -1.261519583673087919e+00 1.792778960494628149e-01 -2.370701292447560116e-01 -1.823246535474351004e-01 -2.196761007002139832e-01 -1.713570978857469562e+00 -5.532731639081552855e-01 -1.364743213483714968e+00 2.317931966803354615e-01 1.270316870976937684e+00 6.349859144520858534e-01 -2.940065449710407286e+00 -8.482450553519290670e-01 -1.298762016042817324e-01 -8.707992883677204699e-01 6.015564283857262051e-01 5.232046241720484936e-01 1.097909991583661649e+00 1.065940378012955048e+00 8.447380703500437793e-01 -1.384089223709658478e+00 -9.096923691034396187e-02 1.169623721106820557e+00 -1.807165312312479566e+00 -8.934738490214062800e-02 7.749007320690958212e-01 5.205723285379353360e-01 6.218264931642192989e-02 3.872030258899868127e-02 -1.162514106057543684e+00 -1.057213024720873085e+00 2.273832401735657593e-01 -1.502929735412845913e+00 -3.445623048765930063e-01 -5.134097487591579023e-01 -4.055036254841364318e-01 1.417973795073183552e-01 2.005609755572393738e+00 7.991920025242374992e-01 -1.111109007863484877e+00 7.109424787627164344e-01 5.840703543404016651e-01 -1.066729192528041770e+00 -7.622277635395552364e-01 1.268428138438532304e+00 6.238381244438930828e-01 5.469667615528586158e-01 1.007067252959309434e+00 1.362659591309574258e+00 4.248789462885413371e-01 -7.780215373442340709e-01 -9.723707271503332361e-01 3.993890274405265117e-01 -7.396904998060312986e-01 8.123982178935075238e-01 -7.618076452482738792e-02 -8.746754838140859967e-01 7.487207290755487632e-02 2.014989654900750438e+00 -4.880463281971348377e-01 7.519551771198096368e-01 1.549715589285506345e+00 -1.248133905288325574e+00 1.462385492090461980e+00 -8.640969360928560938e-01 2.535904968628752698e-01 2.785993622696489869e+00 -1.025149308766684531e+00 -1.224237042090727590e+00 -2.802656943662193978e+00 2.134817984520158141e-01 -4.499514722148506785e+00 -2.174008799026564631e+00 -6.647700901550486208e-01 -1.461889269139315273e+00 4.012829021856796352e-01 -1.517220442185191587e+00 2.599663190092648679e-01 3.391069377380296346e-01 8.441364321605706600e-01 7.917157481338543690e-01 1.028048484930999873e+00 -1.843864727649658919e+00 1.857303370763921935e-01 -1.374620878425242720e+00 -7.751305887107150516e-01 1.306331344375332160e-01 2.369379745313418828e-01 1.665675436768669915e+00 -6.960748163932863053e-02 -2.022753872869000880e+00 -3.122131964479111232e-01 -7.549643965085243158e-01 -8.564098512258200291e-01 6.395449949545368717e-01 -1.432061384678997795e+00 1.301654507338360300e+00 -2.180489007969931503e+00 -9.052032226127563197e-01 -1.253459174596174008e-01 8.088243842039029019e-01 -9.647983134937694327e-01 -8.719485715758164002e-01 -8.038606120304131464e-02 5.357377246780532509e-01 -1.853220458606301468e+00 1.079792968770402428e+00 1.044145134713114098e+00 9.657393373285863003e-01 2.348296697648124820e-01 -1.363486972375268502e+00 -6.585361929148935145e-01 -1.936298465041728534e+00 8.041043526302508182e-01 7.026419286306878620e-01 1.025046978852406809e+00 3.392195520658027319e-01 1.390437277939610694e-01 6.965407003246217865e-01 1.183990532539031193e+00 5.970739667638149673e-01 9.602042659854346379e-03 9.877808923316385714e-01 -1.844190743557458656e-01 3.612312822697189008e-01 1.034554919128779504e+00 6.749084649786810663e-01 -1.212474758376192563e+00 -1.511652460718855062e+00 -1.180938632834311330e-01 2.042827505349734007e+00 6.865761320890593211e-01 -5.531415234154158922e-01 2.005420008143405930e+00 5.007059269891315223e-01 -4.137722939343296269e-01 -6.382954387148620512e-01 1.596319923259975182e+00 1.860772303435874742e+00 -1.072047262746443456e-02 -2.023848134464896642e+00 -1.086871730579193507e+00 7.757584521546009304e-01 4.045482034704263041e-01 5.996034182629754739e-01 1.276628929759656694e+00 2.903279645299868261e-01 -2.969326148766461282e-01 -1.502881912890092986e+00 9.861996637567416180e-01 -8.906250664832178199e-01 -4.625785208381349434e-01 1.727882254456805766e+00 1.412090596333216874e+00 6.997823474583293735e-02 1.311119253078052882e+00 -7.889651817445457738e-01 -1.832327672590670642e-01 -1.000791703844498559e-01 2.233645027561558916e+00 -7.746508208211608792e-01 -1.244657773526925748e+00 3.689893295898721837e-01 2.244552676514637302e-01 -2.795990586834562919e+00 8.049528167436101889e-01 -5.211878506856270077e-01 6.238288684717473442e-01 -4.266761475468388021e-01 -2.941442532677423394e+00 -2.268136379321304741e+00 -5.369970511105486288e-01 -1.341315833762175780e+00 -1.632725718591864439e+00 8.657265014111809043e-02 -1.149784573253779474e+00 9.176550762521487048e-01 -1.732964811606165778e-01 9.800017619638199395e-01 -2.430284556253053729e+00 1.151044928127624045e+00 9.646856991659963354e-01 -3.559733758702645634e-01 -6.434597569515095039e-02 -3.360396114130667633e-01 -2.912648745994054697e-02 -8.765832425174574505e-01 -1.221520928486627966e-01 -9.230615924266094563e-01 -1.479802660565368244e+00 1.065557283610256478e+00 2.208413247492275744e-01 -1.467376003739039314e+00 1.633201372716020394e+00 1.046992888809953337e+00 -2.280071955403234707e+00 7.355469096087887682e-01 1.005516363404223457e+00 4.554421663137704357e-01 1.420170031575097358e+00 3.593533483654834382e-01 1.087770588318679676e+00 -3.046541525288912200e-01 -1.617911535172609661e+00 -8.594643220339138745e-01 -5.503179376902908038e-01 -1.330897722891472235e+00 1.919020136149008349e-01 -9.624406116999798533e-01 1.159181956085077791e+00 3.163398173628862442e-01 8.817136221895706116e-01 -1.129377725775799340e-01 1.078104782295154607e+00 -9.877767785662404376e-02 5.487716761212776406e-01 6.562643659737895652e-01 6.445020822592546494e-01 -4.251144593575829078e-01 -1.535230507098100050e+00 -9.147862391076444499e-01 -4.981759612692963080e-01 -3.853220066617028539e-01 1.270705107586383775e+00 8.831935492915392594e-01 -2.000606388406946934e-01 3.752062575477599360e-02 5.013157927094008537e-01 -1.367828023311619789e+00 2.173602564693501993e+00 -1.880634076998605853e+00 1.204330531329292076e-01 6.019024988998420422e-01 -7.542681417148947576e-01 -3.146500882256141884e-01 -3.256919487748056313e-02 1.661163664568297005e+00 5.059124113211096452e-01 1.137546635415088492e+00 1.132000251217092079e-01 -1.082390811619306392e+00 3.729220893104616130e-01 -1.136563959705616078e+00 5.754669282309375911e-01 -1.029424025235991635e+00 2.847111320995476813e-01 1.798854991987630658e+00 -2.737813716574546974e-01 1.006743808154883180e+00 -1.359399432231575222e+00 3.801129512263510257e-01 2.362016619471483558e+00 -9.697605430052349540e-01 1.927499635075854145e-01 4.084100007378983488e-01 -1.403731939264940332e+00 -1.306577656078543814e+00 -1.389148126707979491e+00 9.115008832165820696e-01 -9.530504279581279992e-01 1.455835863356002291e-01 1.280752979571258221e+00 -8.296693476967811898e-02 8.014170353839381589e-01 -1.920996800422798190e+00 1.649708370596596030e+00 -1.663178381172019327e+00 -7.567034908305736440e-01 -3.748463030754256575e-01 7.721655923000301236e-01 6.179734376482181046e-01 -1.124313166350056070e+00 -3.859303297199477290e-01 -7.678461386320186710e-01 2.634738182318251409e-01 6.472824734476996245e-01 4.608759361839937507e-01 9.092892200944252545e-01 3.299666652441126224e+00 -1.238763776152789431e+00 -1.742721120468449181e+00 -2.853877950854686762e+00 -1.615586229281330333e+00 -8.083281612527564164e-01 6.691157690774728328e-01 -8.343965783598797925e-01 7.325150645103846170e-01 -2.071517419456800624e-01 1.941995515897430580e-01 -2.665308601432926638e-02 8.060439930154580379e-01 -3.292518985061917425e-01 6.182593443433864744e-01 1.038575610584753450e+00 2.269533002673961963e+00 -6.121565733752961647e-01 -1.671320037115545803e-02 8.321458344664410811e-01 -4.770034392065938822e-01 1.209718535559461516e+00 -3.293022921323185415e-01 1.995176218081447413e-03 -3.715650609497613277e-01 -1.175842705947407335e-01 -1.796143506369603848e+00 -1.036356748373149950e+00 8.485361042538450693e-01 1.477501008825127915e+00 -7.997093085230493337e-01 -1.472162884000410399e+00 -1.401816467251447040e+00 1.064127750134414629e+00 -7.200714384017885550e-01 -6.548893398894725104e-01 3.427522481014262934e-01 1.039006527510205169e+00 -9.198533696367615642e-01 -3.287258507559089743e-02 1.225583786037932388e+00 8.237069589729010266e-01 5.309385031204879590e-01 6.470757567364447960e-01 8.547766863627720424e-01 -8.572932823450633844e-02 1.085021050370720552e-01 1.040530163369528527e+00 9.422888176766826274e-02 2.653085575993804346e-01 7.223576635217859865e-01 8.693101052936059725e-01 1.185456061462106581e+00 -1.550198442499108875e+00 1.014254001109800907e+00 2.222683385437631109e+00 -1.867700912807634950e-01 1.423956752624053967e+00 3.892748209886079946e-01 7.636135882580423750e-01 8.935442972538489848e-01 6.113158225720581596e-02 4.513566830527763196e-01 1.235489218895896801e+00 -4.317792735231894552e-01 7.094147291379947484e-01 -2.147405078197012873e+00 4.971413492716726390e-01 1.014242688254955782e+00 -6.621604202306249354e-01 1.600188405396219204e+00 2.245512726514420354e+00 -2.949410382032879863e-01 -9.566612855363157419e-02 -2.436582731077554520e+00 -2.268212998201844410e+00 1.219967982048842714e+00 1.040896802710634672e+00 3.875953762648312040e-01 4.211179362733227793e-01 8.274803102843139024e-01 8.205064494931746388e-01 -6.770188266279093536e-01 -2.905282020607395932e+00 -1.888185921828179126e+00 3.513438471353709236e-01 5.162919556412058908e-01 2.788432571356891820e+00 1.092580608510415052e+00 -3.212598807790211786e-01 5.134647703713576261e-01 1.759801474401385457e+00 2.221255394623813384e+00 -5.511643449209511214e-01 -4.597338520653446170e-02 8.462838176983819571e-02 -1.107354682717038408e+00 7.847166905296516504e-01 -5.745665278294270761e-01 -5.835335079559487159e-01 5.522683767096678853e-01 -6.997340107149017108e-01 -8.247261443502819089e-01 1.546076449570206734e-01 3.752072859891095180e-01 -7.100009407072248591e-01 -9.291211688580197636e-01 1.549449737196653687e-01 1.700872299294190759e-01 1.461954575165010262e+00 3.150455239245071870e-01 8.883306138324242873e-01 1.866826737660537416e-01 -4.703093144625257183e-01 -1.645217167223213650e+00 2.164097709741177600e-01 4.451731794387481234e-01 -8.424785847051340371e-01 1.704877564129921641e+00 -5.060137127940378399e-01 9.661553418544697180e-01 3.554339583824378535e-01 -2.788479879658969929e-01 -3.786967874880529106e-01 -2.022846946811132973e+00 -1.372044118624003772e+00 -1.070916491482639010e+00 1.001513669671866280e+00 -1.887077262053389326e+00 -1.120728534026281253e-01 2.646827510381935533e-01 -5.395079906654175472e-01 -4.030857598713996071e-01 6.060805418822935442e-01 4.294123157572541927e-01 -2.229928240524370331e-01 1.094087275087471500e+00 -2.114696015295996823e+00 8.921358468256724850e-01 -7.811947931281981727e-01 7.862917484564515558e-01 1.140658184718080781e+00 -8.560488683121363351e-01 -1.621664831877706936e+00 2.247931620568506705e+00 6.588683794707905772e-01 2.467642174053930049e-02 1.717846723768125805e-01 7.566417843496020534e-01 -3.632038327781106912e-01 1.768163216793710912e+00 -2.857678555861862257e-01 4.727127818963691719e-02 -3.075415016176868965e-01