8.771190000000000708e+00 6.642799999999999816e-01 1.314780000000000060e+00 4.931989999999999874e+00 6.999660000000000437e+00 4.546640000000000015e+00 6.408850000000000158e+00 6.986239999999999561e+00 2.376300000000000079e+00 9.735290000000000887e+00 1.834089999999999998e+00 3.063140000000000196e+00 4.027499999999999858e+00 6.184750000000000192e+00 9.876999999999999669e-02 4.849759999999999849e+00 3.340599999999999792e+00 3.122189999999999799e+00 1.140409999999999924e+00 2.497230000000000061e+00 2.383030000000000204e+00 1.133028999999999975e+01 9.647489999999999455e+00 9.784990000000000521e+00 7.683019999999999960e+00 1.000389000000000017e+01 8.843489999999999185e+00 4.171899999999999942e+00 4.705900000000000083e-01 9.428490000000000038e+00 1.210018999999999956e+01 4.768530000000000157e+00 4.633599999999999941e-01 7.397200000000000442e-01 9.841390000000000526e+00 8.252890000000000725e+00 1.679669999999999996e+00 7.859390000000000320e+00 7.955440000000000289e+00 3.178819999999999979e+00 2.521180000000000199e+00 6.699489999999999945e+00 8.980890000000000484e+00 1.870479999999999920e+00 1.153308999999999962e+01 5.310690000000000133e+00 7.850120000000000431e+00 6.804579999999999629e+00 5.096809999999999619e+00 3.840180000000000149e+00 5.240750000000000242e+00 1.167689000000000021e+01 3.186749999999999972e+00 3.670999999999999819e+00 1.243359000000000059e+01 1.488099999999999978e+00 1.153978999999999999e+01 2.342870000000000008e+00 1.241469000000000023e+01 5.881899999999999906e+00 6.583999999999999631e+00 5.166750000000000398e+00 6.488789999999999836e+00 7.806890000000000107e+00 1.366999999999999882e-01 6.932249999999999801e+00 6.492250000000000298e+00 6.360769999999999591e+00 1.195259000000000071e+01 1.882400000000000073e+00 5.106029999999999625e+00 9.376289999999999125e+00 9.693189999999999529e+00 7.493190000000000239e+00 1.236178999999999917e+01 3.885800000000000143e+00 5.694429999999999659e+00 7.557660000000000267e+00 5.389370000000000438e+00 9.670389999999999375e+00 8.634090000000000487e+00 3.500189999999999912e+00 9.810790000000000788e+00 2.976529999999999898e+00 5.316089999999999982e+00 3.561570000000000125e+00 1.120359000000000016e+01 2.450180000000000025e+00 2.840469999999999828e+00 9.275589999999999336e+00 9.141289999999999694e+00 9.603289999999999438e+00 1.067178999999999967e+01 1.167018999999999984e+01 1.089789000000000030e+01 7.506439999999999557e+00 1.105799000000000021e+01 1.824699999999999933e-01 4.642899999999999805e-01 5.806169999999999831e+00 9.308389999999999276e+00 1.972339999999999982e+00 2.214729999999999865e+00 1.058219000000000065e+01 1.280270000000000019e+00 2.088909999999999823e+00 1.567890000000000006e+00 2.280399999999999927e-01 8.572800000000000420e-01 8.255500000000000060e-01 9.400890000000000413e+00 1.172319000000000067e+01 1.200989000000000040e+01 4.243820000000000370e+00 5.862820000000000142e+00 1.218239999999999990e+00 7.761580000000000368e+00 7.788909999999999556e+00 7.943889999999999674e+00 1.073568999999999996e+01 8.092769999999999797e+00 6.860660000000000203e+00 7.007819999999999716e+00 3.482730000000000103e+00 3.792969999999999953e+00 1.241599000000000075e+01 3.349320000000000075e+00 1.436399999999999899e-01 1.223319999999999963e+00 8.617589999999999861e+00 1.104179000000000066e+01 1.494900000000000118e-01 8.121010000000000062e+00 4.390290000000000248e+00 7.065000000000000446e-02 1.115128999999999948e+01 8.562789999999999679e+00 5.395780000000000243e+00 1.259090000000000042e+00 7.297240000000000393e+00 1.115598999999999918e+01 8.543689999999999785e+00 8.007400000000000073e-01 4.800740000000000229e+00 9.500289999999999679e+00 3.102780000000000094e+00 5.313460000000000072e+00 1.171859000000000073e+01 7.795340000000000380e+00 1.181079000000000079e+01 9.657389999999999475e+00 1.017718999999999951e+01 2.100330000000000030e+00 9.540190000000000836e+00 9.498490000000000322e+00 7.262480000000000047e+00 6.735339999999999883e+00 1.069158999999999970e+01 5.819379999999999775e+00 1.211298999999999992e+01 1.132198999999999955e+01 2.172890000000000210e+00 4.739239999999999675e+00 9.536400000000000432e-01 5.721759999999999735e+00 1.023268999999999984e+01 7.180880000000000152e+00 8.114660000000000650e+00 7.159530000000000172e+00 3.018299999999999872e-01 3.105550000000000033e+00 8.937989999999999213e+00 5.857330000000000148e+00 1.642879999999999896e+00 1.074089000000000027e+01 1.505619999999999958e+00 9.708489999999999398e+00 7.237849999999999895e+00 2.805520000000000014e+00 3.875449999999999839e+00 5.625299999999999745e-01 1.566249999999999920e+00 4.920530000000000292e+00 5.725109999999999921e+00 5.231530000000000236e+00 9.376289999999999125e+00 2.709740000000000038e+00 9.201990000000000336e+00 5.318819999999999659e+00 2.846500000000000141e-01 4.443780000000000285e+00 4.912930000000000241e+00 2.671720000000000095e+00 4.305189999999999628e+00 3.426460000000000061e+00 4.617680000000000007e+00 1.225999000000000017e+01 3.369200000000000195e+00 6.894479999999999720e+00 2.265029999999999877e+00 1.085699999999999998e-01 4.816320000000000157e+00 3.391020000000000145e+00 7.868280000000000385e+00 1.081849000000000061e+01 1.932649999999999979e+00 7.457040000000000113e+00 3.175530000000000186e+00 1.078558999999999912e+01 9.474389999999999645e+00 1.056919000000000075e+01 5.947070000000000078e+00 1.024709000000000003e+01 9.770199999999999996e-01 7.643440000000000012e+00 2.679959999999999898e+00 9.294489999999999696e+00 3.503849999999999909e+00 9.903990000000000293e+00 1.204559000000000069e+01 4.932850000000000179e+00 8.788190000000000168e+00 1.220448999999999984e+01 5.568430000000000213e+00 2.766439999999999788e+00 3.715980000000000061e+00 8.542289999999999495e+00 6.991000000000000547e-01 7.484029999999999738e+00 9.241089999999999804e+00 4.004010000000000069e+00 7.899189999999999934e+00 7.228830000000000311e+00 4.918929999999999580e+00 8.056559999999999278e+00 5.685660000000000380e+00 1.011558999999999919e+01 1.024079000000000050e+01 6.853690000000000282e+00 3.336829999999999963e+00 1.154049000000000014e+01 3.786669999999999980e+00 1.104898999999999987e+01 2.365950000000000220e+00 5.299599999999999866e-01 3.613059999999999938e+00 5.061630000000000074e+00 1.004668999999999990e+01 4.371430000000000149e+00 9.384790000000000632e+00 5.692610000000000170e+00 4.859180000000000277e+00 1.030918999999999919e+01 1.181009000000000064e+01 6.306359999999999744e+00 6.271130000000000315e+00 1.090239000000000047e+01 4.839999999999999684e-03 1.112688999999999950e+01 4.726770000000000138e+00 6.605850000000000222e+00 1.139738999999999969e+01 8.632089999999999819e+00 1.775500000000000078e+00 3.123500000000000165e-01 8.220100000000000184e-01 7.244089999999999918e+00 5.032429999999999737e+00 7.518580000000000041e+00 1.005308999999999919e+01 2.986899999999999888e+00 6.846280000000000143e+00 9.595090000000000785e+00 4.494299999999999962e-01 1.130198999999999998e+01 1.220598999999999990e+01 6.794999999999999929e+00 4.617910000000000181e+00 2.567460000000000075e+00 4.712310000000000443e+00 9.691489999999999938e+00 1.119258999999999915e+01 5.769350000000000200e+00 1.500240000000000018e+00 2.025160000000000071e+00 7.571519999999999584e+00 3.766560000000000130e+00 8.284489999999999910e+00 1.030119000000000007e+01 1.003899000000000008e+01 4.412650000000000183e+00 1.323690000000000033e+00 3.653770000000000184e+00 1.151129000000000069e+01 2.121929999999999872e+00 9.602190000000000225e+00 1.147099000000000046e+01 3.035109999999999975e+00 1.037138999999999989e+01 7.400730000000000253e+00 7.133399999999999963e+00 1.218279000000000067e+01 9.180889999999999773e+00 2.319189999999999863e+00 4.439210000000000100e+00 5.947199999999999598e+00 5.930369999999999919e+00 1.493519999999999959e+00 1.040909000000000084e+01 3.009149999999999991e+00 6.640080000000000204e+00 3.465669999999999806e+00 9.167089999999999961e+00 1.200878999999999941e+01 1.043809000000000076e+01 8.538700000000000179e-01 7.923359999999999737e+00 5.914579999999999949e+00 7.403999999999999915e+00 6.844999999999999696e-02 4.456260000000000332e+00 1.017969000000000079e+01 1.076728999999999914e+01 7.346689999999999721e+00 1.546659999999999924e+00 7.144350000000000200e+00 6.840160000000000018e+00 2.171809999999999796e+00 3.937930000000000152e+00 1.013538999999999923e+01 1.217969000000000079e+01 2.094840000000000035e+00 7.511700000000000266e+00 2.383300000000000196e+00 2.938870000000000093e+00 1.216718999999999973e+01 6.849050000000000082e+00 5.436199999999999921e-01 1.026899000000000051e+01 4.286970000000000169e+00 9.010089999999999932e+00 2.055140000000000189e+00 5.559540000000000148e+00 5.141519999999999868e+00 5.535319999999999574e+00 1.042948999999999948e+01 8.380990000000000606e+00 7.672530000000000072e+00 3.192899999999999849e+00 9.227289999999999992e+00 6.590620000000000367e+00 7.253829999999999778e+00 1.141299000000000063e+01 6.782060000000000421e+00 5.806610000000000049e+00 2.548410000000000064e+00 8.394389999999999574e+00 8.505390000000000228e+00 1.164039000000000001e+01 9.313290000000000290e+00 1.136849999999999916e+00 9.047300000000000342e-01 6.096289999999999765e+00 9.390589999999999549e+00 1.895639999999999992e+00 1.808400000000000007e+00 3.712000000000000188e+00 9.222590000000000288e+00 4.399650000000000283e+00 8.870089999999999364e+00 6.985319999999999752e+00 8.703899999999999970e-01 7.738500000000000156e+00 9.382789999999999964e+00 1.010359000000000052e+01 1.090118999999999971e+01 8.260389999999999233e+00 4.090300000000000047e-01 8.130340000000000344e+00 7.854350000000000165e+00 6.052179999999999893e+00 5.390659999999999563e+00 6.038579999999999615e+00 2.002299999999999913e-01 1.879480000000000040e+00 8.419090000000000629e+00 1.083919000000000032e+01 2.800640000000000018e+00 7.816390000000000171e+00 8.704990000000000450e+00 1.672719999999999985e+00 4.763329999999999842e+00 4.658689999999999998e+00 1.159919000000000011e+01 1.161678999999999995e+01 1.206539000000000073e+01 3.090300000000000047e+00 5.272540000000000227e+00 6.510379999999999612e+00 7.165250000000000341e+00 4.860640000000000072e+00 9.236390000000000100e+00 5.694119999999999848e+00 1.142399999999999943e-01 2.632270000000000110e+00 2.644900000000000029e-01 2.865629999999999900e+00 1.111119000000000057e+01 1.066808999999999941e+01 2.918800000000000061e+00 1.003478999999999921e+01 7.954340000000000188e+00 7.930340000000000167e+00 3.781940000000000079e+00 4.766549999999999621e+00 8.815590000000000259e+00 1.223559000000000019e+01 2.767000000000000015e-02 2.966880000000000184e+00 4.944469999999999921e+00 1.157118999999999964e+01 1.229639000000000060e+01 6.904849999999999710e+00 3.730999999999999872e-01 7.051809999999999690e+00 1.216839000000000048e+01 2.101230000000000153e+00 1.031118999999999986e+01 8.609189999999999898e+00 8.613590000000000302e+00 3.104350000000000165e+00 8.782489999999999242e+00 5.518839999999999968e+00 6.657829999999999693e+00 3.382579999999999920e+00 3.371620000000000061e+00 2.959000000000000075e+00 8.243790000000000617e+00 7.023939999999999628e+00 1.809129999999999905e+00 2.875820000000000043e+00 9.074289999999999523e+00 4.678230000000000111e+00 8.605199999999999516e-01 1.108128999999999920e+01 4.123120000000000118e+00 1.223249000000000031e+01 5.938659999999999606e+00 1.459340000000000082e+00 6.714799999999999658e-01 4.620569999999999844e+00 2.183870000000000200e+00 2.457059999999999800e+00 1.025428999999999924e+01 1.273220000000000018e+00 8.511089999999999378e+00 6.434149999999999814e+00 1.076728999999999914e+01 8.851089999999999236e+00 5.943920000000000314e+00 2.940230000000000121e+00 4.554960000000000342e+00 8.270889999999999631e+00 6.976549999999999585e+00 9.850889999999999702e+00 3.503400000000000070e+00 1.087290000000000090e+00 3.431600000000000206e-01 1.208658999999999928e+01 1.059178999999999959e+01 9.044990000000000308e+00 4.472260000000000346e+00 3.237010000000000165e+00 6.453050000000000175e+00 1.049469000000000030e+01 7.913909999999999556e+00 2.602570000000000050e+00 6.077300000000000146e+00 1.050258999999999965e+01 1.331669999999999909e+00 3.361700000000000244e-01 6.610380000000000145e+00 3.416790000000000216e+00 1.060649000000000086e+01 1.135158999999999985e+01 4.951089999999999769e+00 4.739040000000000141e+00 4.025299999999999989e-01 4.555419999999999803e+00 7.997709999999999653e+00 1.232038999999999973e+01 2.125360000000000138e+00 3.916119999999999823e+00 7.039909999999999890e+00 1.065179000000000009e+01 2.640799999999999814e-01 1.020308999999999955e+01 6.939820000000000100e+00 3.336450000000000138e+00 7.174549999999999983e+00 7.168299999999999672e-01 5.254719999999999835e+00 8.926489999999999370e+00 9.916990000000000194e+00 1.982469999999999954e+00 3.169070000000000054e+00 6.350410000000000110e+00 1.860950000000000104e+00 1.736850000000000005e+00 9.562089999999999534e+00 8.795590000000000686e+00 3.162850000000000161e+00 1.121409000000000056e+01 3.611689999999999845e+00 6.727780000000000094e+00 4.700990000000000002e+00 1.147789000000000037e+01 9.561999999999999666e-02 1.915350000000000108e+00 1.961999999999999966e+00 3.623699999999999921e+00 2.495659999999999989e+00 9.887389999999999901e+00 4.575919999999999987e+00 5.686049999999999827e+00 3.071140000000000203e+00 5.456550000000000011e+00 2.771459999999999813e+00 8.490299999999999514e-01 1.113809000000000005e+01 1.115280000000000049e+00 3.346070000000000100e+00 1.004928999999999917e+01 1.068439000000000050e+01 1.130629000000000062e+01 1.452609999999999957e+00 1.236749000000000009e+01 7.503490000000000215e+00 5.386230000000000295e+00 1.151889000000000074e+01 1.431840000000000002e+00 8.775890000000000413e+00 5.015430000000000277e+00 1.187928999999999924e+01 8.454000000000000403e-01 4.488889999999999603e+00 2.412069999999999936e+00 9.366390000000000882e+00 4.119900000000000229e-01 9.261889999999999290e+00 6.376420000000000421e+00 7.510690000000000310e+00 6.458669999999999689e+00 8.096949999999999648e+00 1.639459999999999917e+00 8.842489999999999739e+00 9.954990000000000450e+00 1.035139999999999949e+00 5.454930000000000057e+00 4.310050000000000381e+00 2.427160000000000206e+00 4.890520000000000422e+00 3.854500000000000148e-01 8.337889999999999802e+00 9.302490000000000592e+00 1.020439000000000007e+01 3.410499999999999865e+00 1.186458999999999975e+01 8.680490000000000705e+00 1.071148999999999951e+01 5.077069999999999972e+00 4.714680000000000426e+00 8.065490000000000492e+00 4.474569999999999936e+00 6.862809999999999633e+00 7.251490000000000435e+00 5.455499999999999794e+00 1.086838999999999977e+01 1.139569000000000010e+01 9.034689999999999444e+00 3.292399999999999771e-01 6.245390000000000441e+00 2.311360000000000081e+00 1.201488999999999940e+01 4.554549999999999876e+00 1.183929000000000009e+01 4.709550000000000125e+00 3.774640000000000217e+00 3.190160000000000107e+00 1.216169000000000011e+01 9.815590000000000259e+00 1.020928999999999931e+01 3.019680000000000142e+00 3.865219999999999878e+00 2.857700000000000240e-01 8.463689999999999714e+00 1.881240000000000023e+00 8.733300000000000507e-01 4.688900000000000290e+00 1.237848999999999933e+01 3.299599999999999866e+00 2.895199999999999996e-01 2.657649999999999846e+00 1.173989000000000082e+01 5.443340000000000067e+00 1.560110000000000108e+00 6.109040000000000248e+00 9.437490000000000379e+00 3.512280000000000069e+00 1.648579999999999934e+00 6.292580000000000062e+00 1.021828999999999965e+01 3.249540000000000095e+00 1.137218999999999980e+01 8.019500000000000517e-01 4.425440000000000040e+00 1.089769000000000077e+01 3.353660000000000085e+00 7.433589999999999698e+00 1.158028999999999975e+01 1.219488999999999912e+01 1.199619000000000035e+01 7.737440000000000317e+00 6.048860000000000348e+00 1.000839000000000034e+01 9.679289999999999949e+00 9.610290000000000887e+00 8.961990000000000123e+00 8.476490000000000080e+00 1.148348999999999975e+01 1.102928999999999959e+01 1.011778999999999940e+01 1.868260000000000032e+00 5.771600000000000064e-01 8.479089999999999350e+00 8.513690000000000424e+00 9.277789999999999537e+00 1.089518999999999949e+01 1.129629000000000083e+01 2.785130000000000106e+00 1.155189000000000021e+01 6.782969999999999722e+00 8.253190000000000026e+00 2.402829999999999799e+00 4.980190000000000339e+00 5.862630000000000230e+00 1.135969999999999924e+00 6.420099999999999696e+00 3.415700000000000180e+00 1.262029999999999985e+00 6.197110000000000340e+00 6.618850000000000122e+00 7.617460000000000342e+00 1.152069000000000010e+01 1.204538999999999938e+01 8.838599999999999790e-01 1.010979000000000028e+01 3.168039999999999967e+00 5.529060000000000308e+00 8.867689999999999628e+00 4.588960000000000150e+00 1.449230000000000018e+00 1.040038999999999980e+01 1.022308999999999912e+01 2.479249999999999954e+00 6.362479999999999691e+00 7.255329999999999835e+00 5.862809999999999633e+00 2.134790000000000187e+00 5.735450000000000159e+00 8.808889999999999887e+00 7.622889999999999944e+00 7.358939999999999593e+00 4.067789999999999573e+00 6.925589999999999691e+00 6.892360000000000042e+00 6.363699999999999690e+00 7.124729999999999563e+00 8.073199999999999932e+00 5.825709999999999944e+00 4.856799999999999784e+00 3.272949999999999804e+00 5.095989999999999576e+00 1.233418999999999954e+01 2.222760000000000069e+00 1.024529000000000067e+01 2.652550000000000185e+00 7.745289999999999786e+00 3.995899999999999785e+00 3.303259999999999863e+00 1.146399000000000079e+01 9.241089999999999804e+00 4.235420000000000407e+00 9.400090000000000501e+00 5.086610000000000298e+00 9.970789999999999154e+00 8.715300000000000269e-01 1.149400000000000005e-01 8.262389999999999901e+00 1.031528999999999918e+01 6.705989999999999895e+00 4.723910000000000053e+00 8.269289999999999807e+00 9.433989999999999654e+00 7.823699999999999655e+00 2.289829999999999810e+00 7.675370000000000026e+00 2.912490000000000023e+00 1.519630000000000036e+00 1.500569999999999959e+00 1.500389999999999890e+00 5.766539999999999999e+00 6.640220000000000233e+00 9.387190000000000367e+00 7.654440000000000133e+00 1.003749000000000002e+01 5.076329999999999565e+00 9.646290000000000475e+00 7.962000000000000188e-01 3.923490000000000144e+00 5.046380000000000088e+00 4.541360000000000063e+00 1.035269000000000084e+01 9.598589999999999733e+00 8.858599999999999808e-01 1.068429000000000073e+01 8.086880000000000734e+00 1.425610000000000044e+00 1.241319000000000017e+01 1.217899999999999983e+00 1.069269000000000069e+01 1.126868999999999943e+01 7.314409999999999634e+00 7.492499999999999716e-01 8.058799999999999741e+00 9.597989999999999355e+00 1.227318999999999960e+01 5.486999999999999655e-01 6.379819999999999602e+00 2.709839999999999804e+00 1.093969000000000058e+01 9.596989999999999910e+00 5.725640000000000285e+00 2.871680000000000010e+00 1.095308999999999955e+01 6.664030000000000342e+00 9.110290000000000887e+00 7.177240000000000286e+00 3.557459999999999845e+00 5.938900000000000290e-01 1.229168999999999912e+01 5.112400000000000055e+00 6.003350000000000186e+00 9.966689999999999827e+00 9.233389999999999986e+00 5.718110000000000248e+00 1.638800000000000034e+00 1.659429999999999961e+00 3.923849999999999838e+00 1.221438999999999986e+01 2.791679999999999939e+00 2.490829999999999878e+00 4.221899999999999764e+00 1.054208999999999996e+01 8.381990000000000052e+00 4.695660000000000167e+00 3.317450000000000010e+00 1.239549000000000056e+01 3.850680000000000103e+00 3.732110000000000039e+00 4.173540000000000028e+00 1.104228999999999949e+01 4.523390000000000022e+00 7.899930000000000341e+00 1.228699999999999903e+00 8.504099999999999993e-01 1.179898999999999987e+01 6.772999999999999854e-02 1.122228999999999921e+01 3.496119999999999894e+00 5.544550000000000090e+00 7.931759999999999700e+00 5.400509999999999700e+00 1.172019000000000055e+01 4.976960000000000051e+00 1.018018999999999963e+01 5.373429999999999929e+00 1.060289000000000037e+01 5.602879999999999860e+00 1.051008999999999993e+01 6.648410000000000153e+00 1.150219000000000058e+01 8.514300000000000201e-01 4.917530000000000179e+00 8.391989999999999839e+00