-7.785525004998779332e+04
-7.787848748195097141e+04
-7.782487698198591534e+04
-7.785663036996258597e+04
-7.787348949854295643e+04
-7.789001787538993813e+04
-7.784940676922228886e+04
-7.784477499707105744e+04
-7.786611602180438058e+04
-7.784564031944486487e+04
-7.785805429708492011e+04
-7.782344225867527712e+04
-7.782575068225138239e+04
-7.782167171670109383e+04
-7.788916169474872004e+04
-7.786013507021682744e+04
-7.784401324960084457e+04
-7.788934549902316940e+04
-7.784982134536905505e+04
-7.785040232005159487e+04
-7.785874767454180983e+04
-7.788009157563552435e+04
-7.786604476552928099e+04
-7.786661762524981168e+04
-7.786318154586674063e+04
-7.785048358883746550e+04
-7.785009317934085266e+04
-7.788103471415895910e+04
-7.787308070572056749e+04
-7.784118120500913938e+04
-7.783106477906611690e+04
-7.786512956832192140e+04
-7.786917318831117882e+04
-7.783268532586815127e+04
-7.781652024409630394e+04
-7.787426510815268557e+04
-7.784357426666315587e+04
-7.782956674487462442e+04
-7.781716709697301849e+04
-7.782198214133066358e+04
-7.787701869875118427e+04
-7.783502404488403408e+04
-7.783147026300652942e+04
-7.785803357927301840e+04
-7.788339991346842726e+04
-7.787484104919336096e+04
-7.786073120941288653e+04
-7.786489578837664158e+04
-7.782258108625991736e+04
-7.783862204424297670e+04
-7.784722494111080596e+04
-7.782999050589073158e+04
-7.783795695819031971e+04
-7.788455543271274655e+04
-7.787010117839289887e+04
-7.787871796393435216e+04
-7.784910844199339044e+04
-7.783950769245688571e+04
-7.785880397093544889e+04
-7.783489746630909212e+04
-7.782698114811471896e+04
-7.786936798383638961e+04
-7.784216350832297758e+04
-7.784125011249618547e+04
-7.785585275553906104e+04
-7.785587936085138062e+04
-7.788312259157077642e+04
-7.788762061633815756e+04
-7.782426523097076279e+04
-7.782520656061475165e+04
-7.785554701548202138e+04
-7.782759401074147900e+04
