4.049148428115325049e-01 7.491228496432137396e-01 5.682446988538877308e-01 -4.632048416199965879e-02 6.617032780507604572e-01 5.956387768605506672e-01 -5.298390993178440089e-01 -8.940137807299076977e-02 8.721974543824018156e-01 1.172314637897856837e+00 9.238987436851240354e-01 1.644319337925076896e+00 -4.872868242605095102e-01 1.541461833234881063e+00 1.195682368021123487e+00 -9.539904233515953402e-01 -1.690814142895821437e+00 5.829077013947620012e-01 5.404042773015299561e-01 1.314810843302178234e-01 -9.836527287546392370e-03 1.482982601218104435e+00 -2.645783642412165904e+00 2.688866593205855970e+00 -1.100445613730919314e+00 3.111559587405978711e-01 1.431524538294544957e+00 1.446754726239682931e-01 1.188595378681536419e+00 2.738708460548634260e+00 -5.980021350817626979e-01 -7.623012970960464374e-01 -8.593681627677330903e-01 2.740827049728659093e-01 -5.788042204101512267e-01 1.573895273854224230e+00 -5.172093253249835376e-01 -6.890665028169378203e-01 1.426594190464914869e+00 -9.628221634406542995e-01 1.757074047942441375e+00 -1.941728121146553965e-01 -5.313046282409192855e-01 -4.254780133746405291e-01 2.350502704342859184e-03 -1.839396664206641052e+00 -1.729911369239421459e+00 -7.760186478160311374e-01 -7.219622278228930989e-01 3.240978646830396104e-02 -6.633333575897599754e-01 -9.300380243211225917e-01 8.999036643386461032e-01 -4.340690981879102850e-01 2.535724991392585559e-01 -1.405231920973224691e+00 7.400401698648702009e-01 -2.083169659946935981e-01 3.120568733627830937e-01 5.580939827340608561e-02 1.378322238842188407e-01 -3.933572189255534757e-01 5.798018085191918303e-01 5.173939305472236017e-01 -2.007630128603538289e+00 -3.344655819276164399e-01 -1.063535367917087360e+00 -1.360710180731546926e-01 9.676779492724437715e-01 -5.669560618429309029e-01 1.426278973191284827e+00 -9.486666967057714173e-01 1.951056084186759410e-01 8.841479428638999716e-01 1.216309816168577029e+00 5.582893865904708930e-02 3.051658021002807142e-01 -1.670697830099082681e-01 -2.081612085523078193e+00 6.594921291492785720e-01 -3.294755844997137029e-01 -1.959709903922350005e+00 1.971177539190245576e-01 -3.512584865033601678e-01 -3.379154884346031174e-01 3.615511275294215898e-01 9.877551812979005197e-01 9.462452315483111942e-01 5.904708590791798439e-01 2.942329563341389842e-01 -6.975886820597893001e-01 -2.571386195187417845e-01 -1.145035745322340537e+00 1.282469962404292785e+00 6.731596004638110697e-01 1.169374838300234920e+00 6.940816970579037903e-01 -1.466120276851267334e+00 2.018705927717264093e+00 -8.603076439405256126e-01 -4.816951886431337648e-01 -2.564742464069476036e-01 -5.238515137809005573e-01 -1.804372065607165787e+00 1.253150127970641181e+00 2.443847640770609786e+00 -1.301710043171234954e+00 7.994285440346285965e-01 -4.846180189584882725e-01 1.705546565227789024e-01 -8.254928473763538666e-01 8.738352472315228381e-01 -7.906811361362307833e-02 -4.060764673158226978e-01 -2.101630182170937111e-01 7.763348935310105947e-01 2.075635298620304603e+00 -4.372582948127920477e-01 7.651367098966910252e-01 -2.331229713452732388e-01 2.469942797352820740e+00 1.219454275594754167e+00 -8.486595172157881950e-02 -7.699976379352281297e-01 1.402694756163942902e+00 4.393295756907384386e-01 8.614276165701599541e-02 -6.312573003393774640e-02 -5.425629756941861004e-01 1.658662495206248755e+00 7.355479380501384057e-01 1.710227516030158545e+00 -2.293641724789562186e+00 -1.626486679144961700e+00 -1.397026501666027265e+00 1.127867973874694396e+00 9.728643789981060441e-02 -1.133646271597009036e+00 2.287520956097855440e-01 9.596849031039236810e-02 4.758119899031673650e-01 1.304242065773768999e+00 2.270849921822030437e-01 -2.363245092663492919e-01 2.190118818546223256e+00 -7.566952632997774320e-01 2.009764658624481060e-01 1.103568990109431332e-02 6.091201002908190887e-01 -1.135621907429449351e+00 -1.278697125313554561e-01 -4.156378865423708269e-01 -4.150136226432081243e-01 1.294087235888544019e+00 -3.997613746311226457e+00 -1.097222478541503010e+00 -1.277327241435985306e+00 -1.098118250956940711e+00 -1.951025745166948377e+00 1.599930780838162980e-01 9.042827676049300933e-01 -1.041516438623724561e+00 -5.631857958555666066e-01 -5.871196829417477669e-01 -4.530993769195490461e-01 -1.685329979399470934e+00 -2.785116876446018797e-01 -7.639349761797693539e-01 -1.330723402082727436e+00 7.392729526181234245e-01 -4.081035252157395044e-01 -7.590344531492754232e-01 -9.773797507432021581e-01 -1.063100337226237535e+00 1.001724500148519104e+00 -1.856809718916149210e-01 1.405063770812577051e+00 -1.341992548170164168e-01 1.296486589556989477e+00 1.323684235265893294e+00 4.786314618628943751e-02 2.457830843579446867e-01 -1.246760936086707572e+00 -2.017236285028790876e-02 3.704193772863887402e-01 -1.520569561439924611e+00 -4.663498152668486552e-01 -1.606182161581259704e+00 9.131386760657029811e-01 9.395233388878057035e-01 2.640348329879918521e-01 -6.600927388974019427e-01 -3.971984473660350456e-01 1.485351101646063876e+00 4.345010435547114191e-02 -1.897514913309733986e+00 2.235157864786712911e-01 -3.410671469502271624e-02 -5.603874069435049732e-01 4.259768074291608309e-01 1.136219946074199294e+00 7.117894002140515153e-02 -7.071938100436921948e-01 2.535884399801762168e-01 1.694850775192713044e-01 1.342721198866303700e+00 -1.359416915734517284e+00 4.134509060126026481e-01 3.819075813812747300e-01 5.613325445437198358e-01 -5.164580489191544777e-01 3.098158996621648287e-01 1.355871364182024696e-01 -4.945897862834973124e-01 -3.959473484643360464e-01 3.431214585459063660e-01 1.113855460487395588e+00 1.924944986763630572e+00 5.039336901646205291e-01 -4.912360390426914192e-01 -1.641109572473204714e-01 -1.378078498242350847e+00 1.243079630276077374e+00 1.374557629282246785e+00 2.093365627486141634e+00 1.059978503509749898e-01 -1.630778879117210645e-01 -5.632680711635287274e-01 -1.639821449682922649e+00 3.283864651105651566e-02 4.398782491507107761e-01 5.928295893143189499e-01 -1.145632241305065968e-01 -6.816092745915210971e-01 1.111206195571015076e+00 -2.045294221926573286e+00 -9.665034692512844416e-02 -3.793961276057309928e-01 1.060744178094472190e+00 -3.829565915577918256e-01 -5.102868866013205579e-02 -1.851940049126140853e+00 -2.468729236560379459e+00 -1.165971211653976880e+00 -4.108309516746838641e-01 1.419082454847973018e+00 -7.146417822969632905e-01 2.088790091922098635e-01 4.561780160993566535e-01 2.298512937241594667e+00 -1.473238633652015350e+00 1.134942107697412661e+00 -6.316018281914688171e-01 1.334495724952790674e+00 -2.986943349083850396e-01 -3.088738473859985456e-01 2.630074200798148132e-01 1.547966724770636349e+00 6.470356475238132621e-01 1.879214313715584228e-01 -2.418555182661703995e+00 -1.079471066628000742e+00 -2.010320016953225097e-01 -3.212490821448511780e-02 -1.153498274966919590e+00 6.813830174946251539e-01 -5.985461805556621107e-01 1.827961939061930330e-01 6.024665989800572774e-01 2.212341893447467012e-01 -2.111055847139347574e-01 -4.581063436297188596e-01 1.342834327414751616e+00 2.937249063074728883e-01 -1.044372420251359790e+00 8.448285731888019456e-02 -9.018376482964307606e-01 -1.174104640066707533e-01 1.410394182327172896e-01 -8.760654222979710193e-01 8.315981894478181591e-01 9.246819017727885004e-02 -1.498333116801137121e+00 5.585346698523329101e-01 7.168159073098623324e-01 -4.900343053257696924e-01 2.283512605938075701e+00 -9.731585132240707647e-01 -3.521141497061662795e-01 -1.586365639437907982e+00 9.163561548276966118e-01 1.191172138482774923e+00 1.369148542004412050e+00 1.938831516085611995e+00 3.222219876615032286e-01 1.285225156779674194e+00 -4.448934433916769404e-02 1.070613615505203509e+00 -4.138807944967047292e-01 3.633894664417002263e-01 1.421167105463463087e-01 1.837906966911851681e-01 4.867083260014008483e-01 -2.006365145743620904e+00 -6.723286198533936497e-01 -1.066705024156327841e+00 -1.131160528855203573e+00 9.074426536513504615e-01 8.231006927973550935e-01 -4.004858601397965900e-01 -1.407650815027311264e+00 -9.558878976414718620e-01 -9.067808516429299859e-01 -1.009448094683463415e+00 3.924958992953250236e-01 1.306331344375332160e-01 -1.017036963401619420e+00 3.772888512805511185e-01 6.662839558215516433e-01 3.792428898446515428e-01 3.766728149121847946e-01 5.449155352812280473e-01 1.957566117929262051e+00 -3.520868960104038548e-02 3.987081992671399622e-01 3.772549127160167437e-01 -1.722101385631117143e+00 -6.752406515345780180e-01 -4.202766712494100942e-01 6.112813697868491047e-01 7.393135760514297772e-01 -1.540332604633100899e-01 2.718854400296025209e-01 -6.137223753299502205e-01 4.569349489326081648e-01 -1.352168975323729261e-01 -1.705855097632646700e-01 -9.805931157397977938e-01 -8.448008052723647854e-01 -4.636013057602390575e-01 -2.474604721990224521e-01 -5.119365065259611214e-01 1.595582530812364785e+00 -7.646960227784190822e-01 6.076514860436952326e-01 -6.816442415974048874e-01 3.224126092656379505e+00 6.806636227706314157e-01 -8.605477849956401082e-01 8.955394734719303029e-01 6.830449787154599939e-01 1.189598108997324578e-02 9.280690733574541440e-01 5.230961236096733913e-01 1.116396739062075483e+00 4.363003016957080482e-01 -4.713326136053047066e-01 -3.582318330738247791e-01 3.771299570920493283e-01 -8.782246349113018713e-01 1.318924608700284551e-01 -6.898969692066804216e-01 7.502942443403243233e-02 4.770425199778758653e-03 -3.791426168130727081e-01 -4.894738047902776334e-01 6.402052543009327801e-01 1.072186616549304361e+00 -2.241855589075504085e+00 1.338603833923474318e-01 1.277724219796902538e+00 -7.523531839220765072e-01 3.638100989536565688e-01 -4.600912354343050237e-01 1.001412882419612682e+00 -3.163958674164354945e-01 4.270767254524794887e-01 -3.797272857202785290e-01 -2.405040949108250836e-01 -4.325454623285867051e-01 1.358547882794167272e+00 2.053401939305565360e+00 -8.383859023546931244e-01 -5.678451493895965152e-01 -1.424250886850018549e+00 -1.581800388287359915e+00 4.096276752957377365e-01 7.804548295772137934e-01 1.248532426311267152e+00 -4.116387923547368821e-01 9.907988534718241702e-01 -2.828846202627886552e-01 1.421623733422653135e+00 2.935079051827227947e-01 -2.235790356216671437e-01 -7.508583444205396695e-01 5.366910898090644366e-01 1.229450211291477184e-02 6.524915288830513971e-01 -2.997207193752125520e-01 -1.012196089969398249e+00 -4.311035875565505382e-01 3.169190869530071009e+00 5.179240920629044620e-01 -3.166427961844568095e+00 -1.475927493560352355e+00 1.015667079524050109e+00 -1.037461808603216129e+00 6.203038857462452871e-01 8.904661722947159186e-01 2.028852530071693083e-01 -4.435328154862533401e-01 1.826380196266358391e+00 -1.254534410027103863e+00 -1.822554908666794482e+00 1.431384670271009310e-02 6.562988187589986477e-01 -1.366927622910109497e+00 -2.172798323558171874e-01 -8.693661553471553338e-01 -1.634334200862523900e+00 -1.236629760352521812e+00 -1.240217992221020055e-01 5.211472272523206550e-01 5.652982143874940579e-01 -1.299308118399415735e+00 -1.221293642948382496e+00 -2.290020068577204859e-01 -1.171320135112864591e+00 -6.606244430751072316e-02 -8.877809119311023123e-01 -5.216434502034672516e-01 7.753681586624556754e-01 8.969633505203498114e-01 -1.077278943891485152e+00 -6.988156125897745929e-02 -1.024715820737859273e+00 6.322312342973790411e-01 4.421968701732183482e-01 -3.506727891548048343e-02 -4.483742031391493854e-01 2.224356145292635478e+00 1.554553891614353756e+00 1.889963582700835198e+00 -4.702460653195298934e-01 2.894476187347921337e-01 1.402500894969556988e+00 1.685481674498526372e+00 -2.926743534689315585e-01 -8.033042252603191935e-01 9.936234676382986464e-02 1.018711780139323508e+00 8.223046791928216859e-01 -1.532596154581287839e+00 -1.089925172945937826e+00 -2.485716002330508712e+00 2.432058617580986848e+00 9.145733517482923514e-01 3.392267511552494730e-01 -6.518492672602721472e-01 3.912483999383493671e-01 -3.583773575247827803e-01 -1.001221592328600751e+00 2.216000573548407182e+00 -3.674003877048536704e-01 -1.472919302612987424e+00 1.204955823669804138e+00 -9.762474368173734707e-01 -8.301192907871990379e-01 -3.240515848223108897e-01 -7.148181599884071424e-01 4.271147777824119696e-01 -4.702995442697052719e-01 -3.198498876888202780e-01 -1.526289238005316407e-01 -4.695287274782350972e-01 1.815049857918624721e-01 6.176268529134276708e-01 -6.045990721183005512e-01 -1.488398373364710814e+00 -8.939315054219457157e-02 5.659250493900305212e-01 -1.518519363609643680e+00 8.631867654985250216e-01 1.483784271250060183e+00 8.969227270870434587e-01 -2.535781555666810072e-01 7.370612894959667205e-01 1.787624412450801170e+00 4.726891277453301177e-01 -1.682123813492322206e-01 -5.142911229957021213e-01 -2.378255194159832331e-01 -1.336012161722667513e-01 -1.943620453229682465e-01 -6.640558376378024041e-01 1.022224421568631136e+00 -1.532480454929466100e-02 2.137497074235674421e-01 5.624334910083880201e-01 -3.797653380502110099e-01 -3.780447556724531033e-02 -1.132108237558792224e-01 -2.989776705001795931e-01 1.655687728602742936e+00 -1.792856093595842637e-01 1.453223622328204678e-01 -1.101084275808975166e+00 -8.927251437189510641e-01 -1.372449838736392036e-01 3.894023477159492819e-01 2.705844617224514859e-01 -4.952772993256558953e-01 -4.870703373564341798e-01 7.344289938618535629e-01 -6.057097887757890708e-01 2.322770783352876844e-01 -1.014552249101163595e+00 -1.748439254371816576e+00 -4.609993491459369874e-01 -1.364922162278532802e+00 -7.289304321866099112e-01 -7.427172026976877062e-01 -3.661765424989170681e-01 -6.477257316693455502e-01 -1.192477744775998771e-01 2.212282243849194252e+00 1.348163196267323227e-01 -1.155334556996499007e+00 1.762064559591018653e-01 -1.673582608084504472e-02 1.064196655704833017e+00 -1.601555718170414588e-01 5.284651016748765917e-01 3.764866670279204408e-01 1.136184979068315171e+00 -9.928881320733873306e-02 -1.891817862454031884e-01 4.284167845309125311e-01 6.160867619925117777e-01 1.078450338588595736e+00 5.246819801706432695e-01 3.631390409730905766e-01 7.664515721620607236e-01 1.030457094571591153e-01 1.112696407086479322e+00 3.612523653173841387e-01 -7.567230312162146477e-01 7.841978418688155816e-01 -6.623157148744035494e-01 -4.945352788919723519e-01 5.865185589729495774e-01 6.332735596051242144e-01 -1.358601875965017303e-01 -2.307488144898912907e-01 -9.724812845954075025e-01 1.125875368759986950e+00 3.228858465526225907e-01 2.388846083177256663e+00 1.813877434780164721e+00 -1.689070934808373781e-01 8.291792953937315858e-01 -3.899427936451254628e-01 -1.928299762445786047e+00 -9.368956712397653597e-01 -3.282080305364223349e-01 -5.200899895450075139e-01 -1.171720198797830292e+00 2.163425109098587207e+00 -1.250804253252370879e+00 6.110314585389141628e-01 2.225425724296143493e+00 -1.516405916636366646e-01 4.733560719604980038e-01 1.142912528156242891e+00 -7.165407992488639910e-02 -2.305626666056269924e-01 7.474711728358741578e-03 -4.845038619686907189e-01 3.688036959262825931e-01 -2.349191441622212884e-01 -4.831170088088542203e-01 3.722613157433907749e-01 -1.940915652480428022e-01 7.230009535859148739e-01 2.382086138186818580e-01 -2.172865172245891596e+00 5.245889062285111759e-01 -1.327205104225997356e+00 -1.033006600677067288e+00 -2.350091327803048580e-02 2.888711773583824693e-01 -7.952931813681825002e-01 -7.247811855619452626e-01 1.077719631009757206e+00 2.023268093543763857e-01 1.464397637590810486e-01 1.090724271874519813e+00 -4.546862619218683399e-01 -5.336237634841015653e-01 6.041064487118772419e-01 3.884227573305252257e-01 -7.286044162788100909e-02 2.332504980726145261e-01 1.582030759149653798e-01 -1.455620919113951306e+00 1.451180109366695836e+00 3.617161923660205947e-01 -2.489069749571314882e-01 4.661852646509244136e-01 -9.877664941527451725e-02 2.553537595566384710e-01 5.842734715069332063e-01 -4.266632920299698872e-01 -5.124867226479578042e-01 6.250542563397082363e-01 -9.167155950793561825e-01 1.348683073369508989e+00 -6.649171572680309117e-01 -9.158568465525014357e-01 7.183580551134773895e-01 -7.983440526315528363e-01 2.477602628524094019e-01 -5.705149831329673349e-01 8.181965702221380976e-01 3.696063943995880896e-02 2.850885700748239104e-01 1.302731799651989375e-01 -1.580915414506092187e+00 2.158582693004341913e+00 1.850116622613430462e+00 3.803505211780915940e-01 -5.361341888182958870e-01 8.054469828120577324e-01 1.091757341210119192e-01 -8.304211383232849020e-01 1.816988469862482303e+00 2.610801209908021267e-02 -3.430042162320603438e-01 -3.128503158639427961e-01 1.089166697450661969e+00 -4.941773813023371820e-01 -6.837263211095213622e-01 -6.569493079125741097e-01 4.903248400070108759e-01 4.117298094141699227e-01 2.751404569008539802e-01 -2.058255154033981071e+00 4.399682377687943458e-01 -1.151052641437745550e+00 -9.435743693635907647e-02 2.712891497351470171e+00 4.946828602256295171e-01 -1.070400728145851632e+00 2.076603061930208938e-01 5.219432408568541737e-01 3.590473870639993015e-01 -4.411350044798322267e-01 1.041049012030364818e+00 -4.014911615589587535e-01 -8.754195611304682600e-01 -8.841381726710794142e-01 -1.134079759625834516e+00 -7.237548010951178057e-01 -4.314023497685879893e-01 1.047621780695188742e-01 1.458895476370843658e-01 5.881877192832311030e-01 -1.054352929327839750e+00 1.242956217314134193e+00 1.174398260071997546e+00 1.781414683582360076e-02 -2.320045413776631593e-01 -6.476126031208976341e-01 4.616431534307404716e-01 -2.257250841857241230e+00 -1.692238534164915542e+00 3.087848872092645025e-01 -2.110155446737837170e+00 8.664978324233256757e-01 5.179693434822836284e-01 -1.701382406203555853e+00 -1.050120378953863343e+00 -2.910000509519024003e-01 1.811035851331422863e+00 -9.689012802577053884e-01 1.352518645382567997e-01 -1.041878964199432600e+00 -1.220809247072755399e+00 -1.669211732349016805e-02 -1.654247910713405878e-01 -2.951364420596980231e-01 9.563671513103512156e-01 -9.237994990948948937e-01 -2.500827405299776984e+00 6.354394570872269332e-01 1.231220158854012370e+00 -2.040067682988279396e-02 1.690505610490963262e+00 -3.842447143480737237e-01 4.256389644458413168e-01 -4.115338913370851781e-01 8.655238984653241818e-01 3.243086951596925449e-02 -1.696323503205234839e+00 6.571241429419936164e-01 -7.674177928099408519e-02 1.372742944521007369e-01 -1.617737728584539791e+00 9.153914768418407455e-01 6.917759315522654662e-01 6.687743265494300315e-01 -7.101521215856052560e-01 -6.369903466423129101e-01 5.483078490726412957e-01 -7.006714350049949580e-01 1.697133914988661896e-01 -2.024863206076879418e+00 -7.110005856989646267e-01 -8.334180164158053183e-02 -7.532530701029122033e-01 -2.620777090998428482e-01 1.207865798468289453e+00 3.745891927380440301e-02 -6.621089981631487209e-01 -5.109342904308474820e-01 -2.820490116662983660e-01 -9.086536433404178437e-02 7.068791069907370828e-01 -1.041586886856166849e+00 2.408337103633483023e-01 7.495434821551699711e-02 7.496823217373559806e-03 6.424873656555322166e-01 1.077972113361065798e+00 -5.314290696442121043e-01 5.912355052225529845e-02 5.393794354967268445e-01 1.843416327221265139e+00 -1.039396821002350313e+00 1.152024004292373283e+00 4.920546783569144100e-01 4.225495266318637366e-01 1.608765092030595700e-01 1.517114512726190467e+00 6.967479312565514338e-01 5.232416480606313369e-01 -1.044466522634841299e+00 -9.107197820116165188e-01 -1.300001287868996491e-01 -1.595307422751366166e+00 -4.858871155838039371e-03 2.181805927118000366e+00 -1.649528907581103487e+00 4.401034778062570818e-01 -4.589866894249136076e-01 2.344609735410072560e-01 -1.696475712524964652e-01 -1.191586600346634217e+00 -1.624721359568499501e-01 -1.476643288739622806e+00 -3.742621483888945999e-01 -5.359840363812650166e-01 -1.689206689066511169e+00 4.885800892575392074e-01 1.308592886902941066e+00 -3.437174403079569784e-01 -1.241118392622530431e+00 1.086321514457196713e+00 -7.886535640156393523e-01 3.765792267493778267e-02 -4.879208583524926035e-01 -2.828496532569046984e-01 1.081341287222114866e+00 -1.136564473926290564e+00 -7.593702392498959119e-02 -5.852751733813719159e-01 -3.552164430370129966e-01 5.604213455080393480e-01 4.568747851136608640e-01 5.945512001334264385e-01 -1.411448848931112554e+00 1.263143492563990389e+00 9.008673138831524430e-01 -8.183575212933390519e-01 9.894438819938230489e-01 1.360781143184664144e+00 7.438716281125311303e-02 -2.785466546504857810e-01 5.311904712511218429e-01 -7.992115429098785029e-01 -1.251352926712343328e+00 8.423613423912879039e-01 -1.362643650468656764e-01 7.778976101616161820e-01