7.445910999999999724e+00 1.010531100000000038e+01 1.903540999999999928e+00 1.363631099999999918e+01 1.302661100000000083e+01 1.373211099999999973e+01 7.131390999999999813e+00 1.256321100000000079e+01 2.465561000000000114e+00 7.584520999999999624e+00 2.267889999999999906e-01 5.885181000000000218e+00 1.020461099999999988e+01 4.562180999999999820e+00 7.361940999999999846e+00 7.068680999999999770e+00 6.008550999999999753e+00 4.271771000000000207e+00 1.277691100000000013e+01 8.341870999999999370e+00 9.303701000000000221e+00 7.986330999999999847e+00 2.659150000000000125e-01 1.091961099999999973e+01 1.451201099999999933e+01 1.390341100000000019e+01 5.259320999999999913e+00 2.790061000000000124e+00 1.265681099999999937e+01 3.994861000000000217e+00 4.438190999999999775e+00 5.622260999999999953e+00 9.675310000000000299e-01 1.188231099999999962e+01 1.483401100000000028e+01 6.422461000000000197e+00 1.063861099999999915e+01 1.011141100000000037e+01 6.113531000000000049e+00 7.448460999999999999e+00 1.055401099999999914e+01 1.205221099999999979e+01 1.008851100000000045e+01 4.508240999999999943e+00 1.435221100000000050e+01 3.951900999999999886e+00 4.976861000000000423e+00 5.953171000000000213e+00 6.550000999999999962e+00 1.313671000000000033e+00 2.891500000000000181e-01 8.187751000000000445e+00 7.909170999999999729e+00 5.420600999999999559e+00 1.369681100000000029e+01 8.754571000000000325e+00 1.141501099999999980e+01 1.168111099999999958e+01 8.826741000000000170e+00 7.932781000000000304e+00 5.625891000000000197e+00 6.952321000000000417e+00 8.855221000000000231e+00 8.815999999999999184e-03 1.087011099999999963e+01 1.106451099999999954e+01 1.834370999999999974e+00 6.158490999999999715e+00 1.067911100000000069e+01 5.224141000000000368e+00 1.031800999999999968e+00 5.793641000000000041e+00 1.733560999999999908e+00 6.199070999999999998e+00 1.313751099999999994e+01 9.289690999999999477e+00 1.241241100000000053e+01 8.827241000000000781e+00 1.468021099999999990e+01 1.071501100000000051e+01 1.441331100000000021e+01 8.247609999999999664e-01 2.445411000000000001e+00 8.619700999999999169e+00 5.960021000000000235e+00 1.107851100000000066e+01 6.133771000000000306e+00 2.019671000000000216e+00 1.863741000000000092e+00 2.985520999999999869e+00 1.030561100000000074e+01 5.014580999999999733e+00 1.091911099999999912e+01 3.348951000000000011e+00 7.406081000000000358e+00 1.456051099999999998e+01 4.349611000000000338e+00 1.041851100000000052e+01 7.803850999999999871e+00 3.830451000000000050e+00 1.362891100000000044e+01 9.058621000000000478e+00 6.486509999999999776e-01 1.466171100000000038e+01 1.125721099999999986e+01 4.076761000000000301e+00 5.465131000000000405e+00 1.006661099999999998e+01 8.673101000000000838e+00 1.200701100000000032e+01 1.355591100000000004e+01 1.261301100000000019e+01 3.824580999999999786e+00 3.709230999999999945e+00 1.285681000000000074e+00 6.601080999999999754e+00 8.281321000000000154e+00 1.011171099999999967e+01 1.402701099999999990e+01 1.432721100000000014e+01 8.734470999999999208e+00 3.053681000000000090e+00 8.897460999999999842e+00 1.396991099999999975e+01 1.347441000000000111e+00 5.800660999999999845e+00 8.554790999999999812e+00 1.365461099999999917e+01 4.039610999999999841e+00 6.893721000000000210e+00 6.723161000000000165e+00 1.252921100000000010e+01 5.365471000000000323e+00 4.085660999999999987e+00 4.230540999999999663e+00 8.178809999999999691e-01 9.053160999999999348e+00 3.422130999999999812e+00 3.123701000000000061e+00 1.364241099999999918e+01 3.677170000000000161e-01 1.398961100000000002e+01 1.459431099999999937e+01 8.062209999999999654e-01 1.158941100000000013e+01 1.300271099999999969e+01 9.734911000000000314e+00 1.141101100000000024e+01 2.002070999999999934e+00 2.756851000000000163e+00 1.415011100000000077e+01 3.625731000000000037e+00 1.016361099999999951e+01 1.113781099999999924e+01 1.325191099999999977e+01 4.661391000000000062e+00 3.652121000000000173e+00 6.954750999999999905e+00 7.356190999999999924e+00 6.467540999999999762e+00 2.517600999999999978e+00 2.502330999999999861e+00 1.877601000000000075e+00 1.645469999999999988e-01 9.098881000000000441e+00 1.480051100000000019e+01 6.486061000000000298e+00 1.265429999999999888e-01 5.744341000000000363e+00 1.389651100000000028e+01 8.778909999999999769e-01 3.660461000000000187e+00 1.115461099999999917e+01 9.911511000000000848e+00 8.983620999999999412e+00 2.163501000000000118e+00 2.458400999999999836e+00 6.867941000000000074e+00 2.482861000000000207e+00 1.036501100000000086e+01 9.917011000000000465e+00 2.613071000000000144e+00 1.084651099999999957e+01 1.338101100000000088e+01 8.627900999999999598e+00 1.476801099999999956e+01 4.415451000000000015e+00 2.881441000000000141e+00 7.295730999999999966e+00 1.419221100000000035e+01 1.316281099999999959e+01 2.823660999999999976e+00 7.377709999999999546e-01 3.275120999999999949e+00 6.209230999999999945e+00 8.325970999999999123e+00 6.230571000000000303e+00 1.454041100000000064e+01 2.199670999999999932e+00 9.777411000000000740e+00 8.789399999999999991e-02 7.453580999999999790e+00 7.667601000000000333e+00 1.016531100000000087e+01 4.727140999999999593e+00 3.202780999999999878e+00 9.680811000000000277e+00 2.338881000000000210e+00 1.170271100000000075e+01 1.179541099999999965e+01 1.435031099999999959e+01 3.656410999999999856e+00 1.270441100000000034e+01 9.530411000000000854e+00 1.441871100000000006e+01 7.266001000000000154e+00 1.069831100000000035e+01 4.967321000000000097e+00 4.890730999999999717e+00 1.692361000000000004e+00 3.108840999999999966e+00 1.379451099999999997e+01 1.485271000000000008e+00 4.147751000000000410e+00 3.996661000000000019e+00 1.217051099999999941e+01 1.103551099999999963e+01 4.256121000000000265e+00 9.766610999999999265e+00 7.464921000000000362e+00 1.094771099999999997e+01 3.621520999999999990e+00 1.155421100000000045e+01 5.872841000000000200e+00 2.681939999999999880e-01 9.784211000000000880e+00 5.807540999999999620e+00 6.264720999999999762e+00 1.355631100000000089e+01 9.812011000000000038e+00 1.095031099999999924e+01 8.726350999999999303e+00 1.468191099999999949e+01 1.258851100000000045e+01 4.177160999999999902e+00 1.452621099999999998e+01 1.204871100000000084e+01 4.329931000000000196e+00 8.960300999999999405e+00 9.988011000000000195e+00 7.109491000000000227e+00 3.817400999999999822e+00 3.976710999999999885e+00 4.021531000000000411e+00 1.431211099999999981e+01 9.178910000000000124e-01 6.691351000000000049e+00 3.831790999999999947e+00 1.410201099999999919e+01 1.073291099999999965e+01 2.637191000000000063e+00 1.351981100000000069e+01 4.982311000000000156e+00 1.792731000000000074e+00 8.568810000000000038e-01 1.589450999999999947e+00 8.126010000000000177e-01 2.679870999999999892e+00 1.170761099999999999e+01 1.689500999999999920e+00 1.139431100000000008e+01 8.646580999999999406e+00 1.225831100000000085e+01 3.693290999999999880e+00 2.158789999999999876e-01 4.046471000000000373e+00 7.247830999999999690e+00 1.028841099999999997e+01 1.438321099999999930e+01 1.363261100000000070e+01 1.187521100000000018e+01 9.108980999999999995e+00 8.050720999999999350e+00 3.097341000000000122e+00 1.403411099999999934e+01 1.003131100000000053e+01 4.893609999999999904e-01 1.223311099999999918e+01 1.998950999999999922e+00 1.372881100000000032e+01 1.316851100000000052e+01 6.825661000000000200e+00 5.861960999999999977e+00 1.833590999999999971e+00 1.015161100000000083e+01 2.691620000000000124e-01 1.745400999999999980e+00 9.565210999999999686e+00 8.893330999999999875e+00 2.032731000000000066e+00 6.181860999999999606e+00 4.396850999999999843e+00 1.321271100000000054e+01 8.184611000000000303e+00 1.032731099999999991e+01 5.783000999999999614e+00 1.462321099999999952e+01 1.202241099999999996e+01 6.917520999999999809e+00 2.069590000000000041e-01 7.340561000000000114e+00 6.303100999999999843e+00 1.313801100000000055e+01 1.397751099999999980e+01 1.140351099999999995e+01 7.310461000000000098e+00 1.127191099999999935e+01 9.871111000000000857e+00 7.518271000000000370e+00 5.768310999999999744e+00 6.687509999999999843e-01 2.977589999999999959e-01 6.391900999999999833e+00 7.360121000000000357e+00 7.401061000000000334e+00 2.896681000000000061e+00 9.110910999999999760e+00 1.209871099999999977e+01 7.552450999999999581e+00 8.349171000000000120e+00 1.322651100000000035e+01 1.382441099999999956e+01 1.483731099999999969e+01 3.153380000000000072e-01 9.832710999999999757e+00 2.338290999999999897e+00 3.178590999999999944e+00 1.392321100000000023e+01 3.545071000000000083e+00 9.158720999999999890e+00 4.142670999999999992e+00 8.128031000000000006e+00 1.012501100000000065e+01 1.408731099999999969e+01 8.268210000000000282e-01 9.862710000000000088e-01 1.432411100000000026e+01 1.256011099999999914e+01 7.505260999999999960e+00 1.874090999999999951e+00 1.427101099999999967e+01 3.402890999999999888e+00 1.100411099999999998e+01 1.128741100000000053e+01 7.145610999999999713e+00 1.021401099999999929e+01 1.071321099999999937e+01 9.488611000000000573e+00 1.084011100000000027e+01 5.806001000000000190e+00 4.357731000000000243e+00 6.888161000000000200e+00 5.280310000000000281e-01 1.431821099999999980e+01 7.696741000000000277e+00 1.447071099999999966e+01 1.274391000000000052e+00 7.783250999999999920e+00 2.981081000000000092e+00 7.417640999999999707e+00 1.423201099999999997e+01 1.004591100000000026e+01 1.660050000000000137e-01 6.911621000000000237e+00 4.965961000000000070e+00 5.340201000000000420e+00 5.799460999999999977e+00 9.619811000000000334e+00 1.370991099999999996e+01 4.036621000000000237e+00 1.386361100000000057e+01 7.171381000000000228e+00 1.120911100000000005e+01 5.510621000000000436e+00 7.144690999999999903e+00 9.581511000000000777e+00 6.555609999999999493e-01 7.163370999999999711e+00 6.996641000000000332e+00 5.243101000000000234e+00 7.513791000000000331e+00 1.569871000000000016e+00 1.115541100000000085e+01 6.317661000000000193e+00 1.482791100000000029e+01 3.366199999999999748e-02 1.526501000000000108e+00 4.038011000000000017e+00 5.376331000000000415e+00 6.555710999999999622e+00 4.778420999999999808e+00 4.617600999999999623e+00 2.759341000000000044e+00 1.162971100000000035e+01 3.098600999999999939e+00 9.946711000000000524e+00 9.178091000000000221e+00 7.710609999999999964e-01 1.425911100000000076e+01 1.197851099999999924e+01 2.064140999999999782e+00 1.261661100000000069e+01 4.267670999999999992e+00 1.047760999999999942e+00 1.211821100000000051e+01 8.162680999999999187e+00 2.816110000000000002e-01 1.212701099999999954e+01 1.374301099999999920e+01 5.549951000000000079e+00 1.175761000000000056e+00 3.231790999999999858e+00 7.563120999999999761e+00 3.181461000000000094e+00 6.349361000000000033e+00 1.058211099999999938e+01 1.022321099999999916e+01 2.769671000000000216e+00 2.708861000000000185e+00 9.889110999999999763e+00 4.789630999999999972e+00 5.991081000000000323e+00 9.653610999999999720e+00 2.175621000000000027e+00 9.503311000000000064e+00 1.069481099999999962e+01 8.441041000000000238e+00 1.111901100000000042e+01 2.995770999999999962e+00 1.364670999999999967e+00 3.842830999999999886e+00 6.317241000000000106e+00 1.220351100000000066e+01 9.926111000000000573e+00 3.489071000000000033e+00 6.249881000000000242e+00 6.163171000000000177e+00 5.658960999999999686e+00 1.040401100000000056e+01 7.292931000000000274e+00 1.197571100000000044e+01 1.397661100000000012e+01 1.061091099999999976e+01 9.859011000000000635e+00 1.274011100000000063e+01 1.377481099999999969e+01 7.876361000000000168e+00 6.976041000000000381e+00 1.345921099999999981e+01 8.903321000000000041e+00 8.687709999999999599e-01 2.014381000000000199e+00 9.149400999999999229e+00 3.513460999999999945e+00 1.473281099999999988e+01 1.376151100000000049e+01 1.143201099999999926e+01 1.043411099999999969e+01 4.866230999999999973e+00 2.320810000000000095e-01 4.770271000000000150e+00 1.468631099999999989e+01 3.990420000000000078e-01 5.063380999999999688e+00 2.805000999999999856e+00 8.614461000000000368e+00 1.471261100000000077e+01 1.056521099999999969e+01 8.880300999999999334e+00 1.335691100000000020e+01 6.824581000000000230e+00 7.540611000000000175e+00 1.138951100000000061e+01 5.483770999999999951e+00 5.404290999999999734e+00 1.865671000000000079e+00 2.533881000000000050e+00 1.251171100000000003e+01 1.287191100000000077e+01 1.242461100000000052e+01 1.250531100000000073e+01 8.752921000000000618e+00 4.813901000000000430e+00 7.436071000000000097e+00 7.854690999999999867e+00 1.235151000000000110e+00 6.073580999999999896e+00 1.189791100000000057e+01 3.294040999999999997e+00 1.064931100000000086e+01 6.839101000000000319e+00 3.505161000000000193e+00 1.237621099999999963e+01 9.364561000000000135e+00 1.035760999999999932e+00 9.550210999999999117e+00 4.695910999999999724e+00 9.100180999999999187e+00 1.318381100000000039e+01 7.657240999999999964e+00 1.025411099999999998e+01 1.258741099999999946e+01 9.792510999999999299e+00 1.050111099999999986e+01 2.236660000000000037e-01 1.353921099999999988e+01 1.275451100000000082e+01 1.080360999999999905e+00 6.392160999999999760e+00 1.421631000000000089e+00 5.456840999999999831e+00 3.436930999999999958e+00 1.136001100000000008e+01 4.909690999999999583e+00 1.006511099999999992e+01 2.946480999999999906e+00 1.450621100000000041e+01 8.391220999999999819e+00 8.410130999999999801e+00 1.285391100000000009e+01 2.967401000000000177e+00 9.993910000000000293e-01 1.083471000000000073e+00 8.457900999999999669e+00 1.170861099999999944e+01 1.040011100000000077e+01 5.345360999999999585e+00 5.537200999999999596e+00 2.938431000000000015e+00 3.446290999999999993e+00 1.300421099999999974e+01 1.328471099999999971e+01 1.255211100000000002e+01 6.896940999999999988e+00 9.917811000000000377e+00 1.311731100000000083e+01 1.329511100000000035e+01 3.827450999999999937e+00 9.040991000000000000e+00 1.423731000000000080e+00 3.073520999999999948e+00 3.182491000000000181e+00 9.860810999999999993e+00 6.187921000000000227e+00 1.150971099999999936e+01 1.131511099999999992e+01 6.403210000000000290e-01 2.249401000000000206e+00 1.442391100000000037e+01 1.193481099999999984e+01 1.387461099999999981e+01 7.491300999999999988e+00 6.256151000000000018e+00 2.985231000000000190e+00 1.463551099999999927e+01 1.100141099999999916e+01 5.998440999999999690e+00 1.151641099999999973e+01 4.689480999999999788e+00 7.681790999999999592e+00 1.042201099999999947e+01 1.705370999999999970e+00 1.172681099999999965e+01 6.482281000000000404e+00 8.314009999999999456e-01 6.317220999999999975e+00 4.402021000000000406e+00 1.350591099999999933e+01 7.256010000000000515e-01 1.449421099999999996e+01 1.313001099999999965e+01 4.159750999999999976e+00 1.259341099999999969e+01 2.517891000000000101e+00 3.214860999999999969e+00 1.473341100000000026e+01 8.282610000000000250e-01 2.397420000000000107e-01 1.357681099999999930e+01 9.957110999999999379e+00 1.479321900000000056e+01 9.080940999999999264e+00 1.467771100000000040e+01 1.153931099999999965e+01 1.047541099999999936e+01 5.855660999999999561e+00 3.846581000000000028e+00 1.136331099999999950e+01 4.176480999999999888e+00 1.395591100000000040e+01 1.025801099999999977e+01 7.901861000000000246e+00 2.715641000000000194e+00 8.812041000000000679e+00 7.804250999999999827e+00 1.002861099999999972e+01 4.149150999999999812e+00 1.009411099999999983e+01 9.120530999999999722e+00 5.083921000000000134e+00 1.414091099999999912e+01 9.363030999999999437e+00 2.951160999999999923e+00 3.577780999999999878e+00 1.344341099999999933e+01 1.275881099999999968e+01 8.756330999999999420e+00 1.241221099999999922e+01 8.348781000000000674e+00 1.135831100000000049e+01 8.982741000000000753e+00 1.460351099999999924e+01 1.335491099999999953e+01 6.518750999999999962e+00 1.352241099999999996e+01 7.919120999999999633e+00 1.034511099999999928e+01 8.704451000000000604e+00 4.497709999999999764e-01 6.643570999999999671e+00 9.965011000000000507e+00 1.387071100000000001e+01 4.331070999999999671e+00 1.380271100000000040e+01 3.874981000000000009e+00 1.146141100000000002e+01 9.413111000000000672e+00 7.650790999999999897e+00 4.874011000000000315e+00 8.465961000000000070e+00 9.549711000000000283e+00 2.630911000000000222e+00 4.250751000000000168e+00 4.264320999999999806e+00 7.104561000000000348e+00 7.624230999999999980e+00 1.438331100000000085e+01 4.668591000000000157e+00 4.766009999999999969e-01 2.973650999999999822e+00 9.845211000000000823e+00 1.420441100000000034e+01 1.483051099999999956e+01 1.089911099999999955e+01 1.318791099999999972e+01 1.044051100000000076e+01 3.570600999999999914e+00 3.723011000000000070e+00 4.115501000000000076e+00 9.957810999999999524e+00 6.291971000000000203e+00 1.352081100000000013e+01 2.020960999999999785e+00 4.951230999999999938e+00 1.188441100000000006e+01 5.501530999999999949e+00 8.377031000000000560e+00 1.160801099999999941e+01 1.216121099999999977e+01 5.950071000000000332e+00 5.678570999999999813e+00 1.274321100000000051e+01 5.954190999999999789e+00 1.803010999999999919e+00 1.452180999999999944e+00 3.068411000000000222e+00 6.612661000000000122e+00 1.344131100000000067e+01 1.158891099999999952e+01 1.222661100000000012e+01 3.896260999999999974e+00 2.154190999999999967e+00 1.285361100000000079e+01 1.065960999999999936e+00 2.927700999999999887e+00 1.056361099999999986e+01 1.012351000000000001e+00 1.423081099999999921e+01 6.009110999999999869e+00 1.321541000000000077e+00 1.348431099999999994e+01 4.739541000000000004e+00 3.119761000000000006e+00 1.011970999999999954e+00 6.014420999999999573e+00 9.528710999999999487e+00 2.464831000000000216e+00 7.230750999999999706e+00 8.013341000000000491e+00 1.087321099999999952e+01 1.476811099999999932e+01 7.356360999999999706e+00 4.697690999999999839e+00 2.399700999999999862e+00 8.594070999999999572e+00 4.400700999999999752e+00 1.988440999999999903e+00 6.274661000000000044e+00 7.812431000000000125e+00 2.871821000000000179e+00 2.729360999999999926e+00 1.478681100000000015e+01 9.574211000000000027e+00 1.149261100000000013e+01 3.703990999999999811e+00 4.461700999999999695e+00 6.988210000000000255e-01 5.655781000000000169e+00 2.980761000000000216e+00 1.065541100000000085e+01 7.877000999999999920e+00 1.157781100000000052e+01 1.460431099999999915e+01 6.745781000000000027e+00 1.121341100000000068e+01 2.378200999999999787e+00 1.647550999999999988e+00 1.071371000000000073e+00 1.890511000000000053e+00 1.103501000000000065e+00 1.016961099999999973e+01 1.433011100000000049e+01 9.349910000000000165e-01 5.833880999999999872e+00 1.426921100000000031e+01 1.442221100000000078e+01 2.700620999999999938e+00 5.820420999999999623e+00 9.666411000000000087e+00 5.805960999999999927e+00 1.452581099999999914e+01 2.593980999999999870e+00 1.229131100000000032e+01 5.336711000000000205e+00 7.826881000000000199e+00 9.066081000000000500e+00 6.051241000000000092e+00 1.182011100000000070e+01 4.164111000000000118e+00 4.750570999999999877e+00 4.124791000000000096e+00 4.392540999999999585e+00 4.680771000000000015e+00 1.389141099999999973e+01 1.436661100000000069e+01 2.196470999999999840e+00 2.611260999999999832e+00 1.436511100000000063e+01 1.422181100000000065e+01 5.246330999999999634e+00 3.643270999999999926e+00 1.387071100000000001e+01 1.072981099999999977e+01 9.153581000000000856e+00 7.058710999999999736e+00 1.129110999999999976e+00 1.166381100000000082e+01 1.111231100000000005e+01 1.260631000000000057e+00 2.819531000000000009e+00 2.629810000000000203e-01 1.756170999999999927e+00 1.474791100000000021e+01 1.047281100000000009e+01 6.780270999999999937e+00 7.683091000000000115e+00 8.965211000000000041e+00 7.531309999999999949e-01 3.112480999999999831e+00 1.278111099999999922e+01 1.471051100000000034e+01 1.168891099999999916e+01 8.272261000000000308e+00 9.549011000000000138e+00 3.876740999999999993e+00 1.130841099999999955e+01 7.458821000000000367e+00 3.925581000000000209e+00 1.313421100000000052e+01 8.991999999999999993e-02 8.656371000000000038e+00 6.653110999999999997e+00 1.243721099999999957e+01 9.648510999999999171e+00 8.835300999999999405e+00