-7.791813948596708360e+04
-7.791725586578782531e+04
-7.791824884374608519e+04
-7.791767821113175887e+04
-7.791627337706340768e+04
-7.791829722597301588e+04
-7.791467899726182804e+04
-7.791924943190126214e+04
-7.791549359271486173e+04
-7.791883795958039991e+04
-7.791827254630879906e+04
-7.791808718504766875e+04
-7.791594837817827647e+04
-7.791444862499453302e+04
-7.791538278598806937e+04
-7.791734608171384025e+04
-7.791526859429418982e+04
-7.791405554776708595e+04
-7.791615116489095089e+04
-7.791776901014434407e+04
-7.791619412513718999e+04
-7.791526406199698977e+04
-7.791860297917330172e+04
-7.791778629040143278e+04
-7.791573682604773785e+04
-7.791710346050215594e+04
-7.791548141953110462e+04
-7.791695430338791630e+04
-7.791935762843463453e+04
-7.791897200415312545e+04
-7.791496690652120742e+04
-7.791553564110936713e+04
-7.791567490025433653e+04
-7.791881111767370021e+04
-7.791804056822470739e+04
-7.791541949527434190e+04
-7.791715223536384292e+04
-7.791764126559803844e+04
-7.791706860395248805e+04
-7.791560215362353483e+04
-7.791799589764697885e+04
-7.791613240467538708e+04
-7.791581214495777385e+04
-7.791568504986540938e+04
-7.791616563065856462e+04
-7.791754391804743500e+04
-7.791515197591049946e+04
-7.791779653208403033e+04
-7.791557235422771191e+04
-7.791553999875039153e+04
-7.791834345121127262e+04
-7.791585602740971080e+04
-7.791612582417456724e+04
-7.791742201468972780e+04
-7.791503563819132978e+04
-7.791658192738752405e+04
-7.791606811745832965e+04
-7.791501041224868095e+04
-7.791896277124527842e+04
-7.791821959796003648e+04
-7.791841544753592461e+04
-7.791724806399299996e+04
-7.791549241207200976e+04
-7.791858639353286708e+04
-7.791695578984095482e+04
-7.791552768996088707e+04
-7.791734338845427555e+04
-7.791744213503388164e+04
-7.791745674053177936e+04
-7.791692576508328784e+04
-7.791789970482396893e+04
-7.791778958135815628e+04
