1.442424988158176324e-01 1.318113168475508079e+00 3.712359597179128445e-01 -1.104387115202979608e+00 9.590153877853818676e-01 1.569995424256819705e+00 5.855641654005889762e-01 -1.778673887385871843e+00 6.115986439431780192e-02 7.731158721069925077e-01 -5.791682886478836112e-01 -1.011197473419008119e+00 -5.749295676258099619e-02 -5.223823853131019934e-01 -2.296764072726725114e+00 -5.612122169058252341e-01 -3.688103807950545154e-01 1.148993701855993255e+00 6.131515903809630491e-02 -2.742889074634459745e-01 -6.963278129652697990e-01 -7.894927721568527623e-01 8.909120016197358272e-01 -6.275096600617027232e-01 4.497142622175824278e-01 5.614143056310072488e-01 -2.813753825823584465e-01 1.208204155672283564e+00 9.717541765612920379e-01 -3.049009784527775269e-01 1.432619828331790579e+00 -1.123210163002688944e+00 1.607747963535913760e+00 6.130564595561318608e-01 2.579351473439500664e-01 1.270402745829622981e-01 -8.820843752960748629e-01 1.236455439543777235e+00 -1.287755122499509186e+00 6.451726260191460449e-01 7.379159242574231392e-01 -2.130110294242699709e+00 -6.798372701462868095e-01 -1.520653379409911132e-01 1.097810232772757466e+00 1.662166909104760212e-02 -3.288369224216577957e-01 -7.639673720822794112e-02 1.620891443982862778e+00 -1.118749812869792359e+00 -4.323968525535801244e-01 -6.737895207903961126e-01 -6.652488296032532666e-01 -7.563286239586712867e-01 8.964974665890143579e-02 1.464397637590810486e-01 -1.165650852173599622e-01 3.682550224663102556e-01 -4.424868906337848726e-03 6.078330059418866060e-01 -1.047488083319750157e-01 1.134350239700760016e-01 -1.760023103512208323e-02 -2.232077682944880875e-02 8.894804112611948144e-01 -1.090313409555383917e+00 -4.692613327273582602e-01 -3.756160914255462502e-01 -1.822505543482017432e+00 3.908982156588355905e-01 -3.422585962536536242e-01 -2.153653887836735614e-01 1.074947981572782929e+00 5.704923574232777517e-01 2.454294033778425366e+00 -7.364555375410954952e-01 -4.924722255448221730e-01 -2.670414812733326038e-01 5.238304307332353194e-01 -7.606650469089497602e-01 -3.009923871039020260e-01 4.175621003073348714e-01 -2.294329237831721213e-01 2.865340443915834895e-02 -1.269298714040906439e+00 1.596922589890797939e+00 -1.247073582256963853e+00 5.277050835175765009e-01 -1.578056347554408489e+00 -2.948289380961896522e-01 -7.394904679635482259e-01 -6.556097630548158861e-01 2.193218026553021005e-01 5.660793155924593867e-01 -8.810358793402326416e-01 -7.922608220491035302e-01 9.513442437592636858e-02 -8.625172501799833746e-01 -1.952694905477230014e+00 7.948530084705850429e-01 1.530753187682936334e+00 -1.706888681188920842e-01 2.883739259658864018e-01 -3.576394508564975094e-01 1.214371718445394155e+00 2.126045379808696664e-02 -1.312636718289279081e+00 -9.969453331972694121e-02 1.478962938203479682e+00 6.658129296834683908e-01 -1.294065638620204295e+00 4.962574039317546037e-01 6.406248583715397071e-01 -4.445869678695180127e-01 -4.557537840426768572e-01 -1.384391071245744564e+00 6.259515714171701717e-01 1.976844251026136645e-01 -1.604356163965175552e+00 4.402582582293608771e-01 8.794824186817727929e-01 6.546234878006199631e-01 -7.568510721642306427e-01 5.194230453298394057e-01 6.497193652254026341e-01 -6.558864137778385173e-01 3.342518203931173382e+00 3.233794984003953155e-01 -9.082268401803643421e-02 -3.884376697300933601e-01 -2.828244564438412989e-01 -5.478512211134515253e-01 2.252877909239054954e+00 -8.036035016930314079e-01 -8.226651478858306721e-01 7.043388568574066033e-01 -1.632347252175238572e-01 -1.438798703959746073e+00 -1.520893520465025572e+00 -1.467006279073884478e+00 1.224668987457528502e+00 2.852922014620302149e-01 7.413560605715894258e-01 6.804311950256384245e-01 -1.213107764026826185e+00 3.517223135519966792e-01 -2.234957318723554964e-01 -8.158815487443538128e-01 -9.190234174676937817e-01 -4.636054195256371080e-01 6.857780616018267494e-01 -9.983851510866065260e-01 -1.014002547199841509e+00 2.068766338846816932e-01 6.663914279425771081e-01 -5.468510619010369389e-01 -1.775180786342205108e+00 -3.638301535599723358e-01 -2.203008788200513934e-01 1.734121808124383102e-01 8.780096906692508307e-01 1.174782897136720239e+00 -7.974261687271004817e-01 1.311424700158862144e+00 -4.733097920997693664e-01 -6.690124107218453631e-01 1.388843193847844881e-01 -1.271523746900607155e-01 -2.607600186207620130e+00 1.405303397647016617e+00 -9.510614223881437290e-01 8.147137535919664053e-01 -1.547562547320272319e+00 9.076360006250612233e-01 -4.051822375624094530e-01 9.314881266239550817e-01 3.716221394446599935e-01 7.795518580723296287e-01 -7.340294443975624583e-01 -1.829312282553858582e+00 -4.334607751296653544e-01 -1.208376419598329310e+00 -8.006025098351130520e-01 -9.178453379018111091e-01 -1.645723160367180471e+00 6.584606024757033715e-01 5.615937686464995693e-01 3.568269821903715111e-01 9.991487687886300151e-01 -1.527384528042562417e-01 7.134919848681926524e-01 -1.003885769644549120e+00 6.683711775404157507e-01 1.071281073941046380e-01 1.312638775171978356e+00 5.597646857063666159e-01 -7.178119527568788127e-01 -4.456735161552927149e-01 1.830164346211941462e+00 1.480014519483370705e+00 2.092199889216453723e+00 2.502948565583175133e-01 -1.982834921887128773e-02 9.096460892427109257e-02 -1.054185293387866817e+00 4.374305587388376271e-01 6.506423913366028433e-01 -3.446954880313566894e-01 -4.387536485350035376e-02 -3.102668711939322033e-01 8.215662583038615407e-01 -2.631236339523113088e-01 -6.993401176780330176e-04 1.049269857957805030e+00 1.941028781028875938e-01 -7.615078545948867905e-01 6.466463824730175336e-01 -3.893205866286619243e-01 1.289279786800182348e-01 -1.174579265749514212e+00 5.812920200346557431e-01 1.409370368963719367e+00 -5.666958661815005849e-01 1.904061456720145262e+00 1.842329264714815673e-01 -5.835900722301727850e-01 1.189885044133842440e+00 -3.043965279708348293e-01 -2.975825898095468824e-01 -8.100122339626059098e-01 -8.275091066421006447e-01 4.359516600782185614e-01 1.321886519786920733e+00 -6.266030890120951602e-01 5.962681829664610023e-01 -2.162912431085848297e+00 -2.289413288180984496e-02 -7.268025870344396733e-01 -1.469910083224272579e-01 -7.453510409938250980e-01 -1.275020447488997233e+00 2.806230777351798600e-01 1.893574954499698038e+00 -1.561538036818988395e+00 7.284090124224000540e-02 1.679225665769356501e+00 -1.239355644149441771e+00 2.560043001322814593e+00 -1.845594565999562342e-01 6.856505348744854622e-01 2.252826487171578351e-01 -1.517109884740117431e+00 -1.039446700407802293e+00 -2.408342245840230600e+00 -1.364075240827197888e+00 1.290694922097130881e+00 -1.217828824041827379e-01 -4.157258182777552324e-01 2.710371301824455514e+00 4.837659553004054480e-01 -4.382841650589446858e-01 -9.014684378519508545e-01 -6.451793108879179117e-01 -1.580236128994729761e-01 1.466799562362629761e+00 9.107465214867042913e-02 3.789281867916963753e-01 -1.190065535590684620e+00 6.635657853347530777e-01 1.016972685817274291e+00 -7.402330026179064770e-01 3.579119878141220346e-01 1.304445697160975248e+00 -6.956397857024365639e-01 8.460781294284766552e-02 1.945286528215915689e-01 8.196991230337963286e-01 1.870047815967254445e+00 6.708204106143130785e-01 -2.493877712880351594e-01 -7.867062103203108225e-02 6.644682426189625346e-01 6.337821238524649070e-02 -1.256451938923296152e-01 7.229438750910162081e-01 3.812653197584954246e-01 1.254816202956874127e+00 1.026446173308437571e+00 1.153803207827054145e+00 1.526633765857408065e-01 1.201983628169672524e+00 -8.418085551659174604e-01 -5.266334476313697666e-01 3.039908078584466211e-01 -1.875152484605629111e+00 -1.371059900252507013e+00 -1.995792768670488160e+00 2.022980129965896434e-01 -1.055121175015935941e+00 1.058717634415230258e+00 2.719970259160261680e-02 5.358107440138697442e-01 1.619599721647857760e-01 1.290801879997481638e+00 1.261465076281562903e+00 3.901505387977298178e-01 4.041337416065671762e-01 3.072499384950961310e-01 -2.812859081849496401e-01 1.375925970497791639e-01 -1.422761703775904163e+00 -7.153724898758019313e-01 -1.946201841016994283e-01 1.399975043015119880e+00 -1.193982354470356277e+00 7.827451684626094419e-01 1.280409480160516478e-01 -7.873448723983667019e-01 -2.922377801160575550e-01 6.492570808387906345e-01 -2.424730458744935868e-01 -1.511248283268490922e-01 1.242048617823177104e+00 -1.405803734363561430e+00 -2.198128833997010367e-01 1.809357435048995488e-01 8.921934395412457475e-01 -7.797950844514925373e-02 -1.126744915921011475e-01 5.270504805986028773e-02 1.035930973654446197e+00 -8.237372979927122252e-01 -1.298328013793316860e+00 -1.461690265738181838e+00 1.730661102983226465e-02 1.749647158736835406e+00 -5.821060313628060312e-01 -1.471215689517496594e+00 5.698331265182312588e-01 -7.977167034083416652e-01 -7.597811015690316694e-01 7.282321205102814110e-01 -1.943409622753029808e-01 4.245920111520234408e-01 4.650251828086585104e-02 -1.988942320841292188e+00 8.118341178132920666e-01 -6.112566871944603575e-01 -1.522818762671339199e+00 -1.004336741176316439e+00 1.654885544350112259e+00 3.879095650971114972e-01 -4.153478660818042956e-01 -1.204307391398927729e+00 5.175116870817443766e-03 -7.215539366071309635e-01 1.992529524268440877e+00 -6.241430573040277485e-01 -9.204976881422398671e-01 1.693894324737653112e-01 -1.228360577681653742e+00 1.234958543159541344e+00 -4.219566301938617037e-01 1.649325276193897460e+00 -9.001535755865809341e-01 1.078007080366949616e-01 -8.739591744141405050e-01 -7.006668070189221720e-02 1.553998019064934732e+00 -6.952623477271603625e-02 8.829503229123762953e-01 9.140066805647033277e-02 -2.315011193370699050e-01 -2.427532961422395816e-02 1.102595570372104428e+00 1.358010522189039559e-01 1.464590984564521525e+00 -6.604012713022598957e-01 1.936513409283779463e+00 -4.366751685676104611e-01 -1.490985417579445027e+00 3.382543598592720972e-03 2.233728331310871063e-01 5.228966059878652484e-01 -1.021631010909954451e+00 -1.146958930645955110e+00 -7.798362221054737364e-02 1.824933179287574758e-01 -5.021004934590894697e-01 -1.832373952451399057e-01 1.325763743674635876e-02 -8.745839525339780263e-01 2.741696082669008994e-01 -1.162277564547152670e-01 5.839592826746527882e-02 -4.036262058005757880e-01 -4.311987183813817959e-01 -1.784669700453611341e-01 4.038879441240302293e-01 -1.437152683579828727e+00 9.902553222185994652e-02 -7.406371800682702566e-02 -1.790840348550770678e-01 -2.546405354807418364e-01 -1.264316429923125318e+00 9.770691614556451521e-01 7.642707622803898704e-02 -2.210947326977508620e+00 -4.315998105076970792e-01 5.843619174629924862e-01 4.869556661459620295e-01 -1.665725316174121728e-01 -8.781860683606945717e-02 -9.347739967356922808e-01 -4.632176971368656138e-01 5.868018945647441864e-01 -5.926665813604190536e-01 -1.582203023075699377e+00 1.020204048537486363e+00 9.612327073349610784e-02 -5.013070509579298228e-01 6.095417612441249577e-01 -1.511540360611756562e+00 4.944684302042532398e-01 3.237430524174529367e-01 -4.020845722176355497e-02 1.992142316100344035e-01 -3.887729416100390023e-01 2.772029960273293403e-01 -1.393178074136099120e-01 6.654493756664108250e-01 4.194297497980750133e-01 4.763889455002517370e-01 1.179266387199981114e+00 1.121084374733217537e+00 1.310823061969389247e+00 1.825935909603363105e-01 -2.928625582358949098e-01 -4.916561573339729985e-01 1.410804016204959321e+00 -2.133948951579807962e-01 -1.019098474086745254e+00 1.473129104648290555e-01 -5.852396921548132930e-02 7.694021703938523915e-01 9.046735753177502504e-02 -5.210685514890819325e-01 -1.406069586452413922e-01 1.851137864873510508e-01 5.781866413797605020e-01 6.975480586264830585e-01 -1.159711603380084027e-01 4.385890979190793515e-01 -1.620413218755333062e+00 2.371302930637033124e-01 -5.742363981562291775e-01 1.238145682901723998e-01 1.012407948887400627e-01 4.765020740486997086e-01 6.804779891070418252e-01 -2.531960896053318533e-01 -4.863396297775956362e-02 1.143591299446930609e+00 -5.116470002860694644e-01 -8.128656444868673780e-01 -3.810015245523418886e-02 1.747800078073085683e-01 -1.614076991600900124e-01 -5.797971805331190165e-01 -8.425557178063484143e-01 -7.062862105527351053e-01 -5.488200128647053866e-01 8.925060857115019175e-01 1.194650841347548509e+00 3.597883790563331519e-01 -1.473283885071394295e+00 -4.697560130164805114e-01 7.669436813478092141e-01 -1.023155160989952656e-01 8.127581723658419133e-01 -2.324966505634116221e-01 -1.224056550633885410e+00 8.615397166772583715e-01 1.575914104223344880e+00 4.510013565665149105e-01 4.562191537533376029e-01 3.749923417470584219e-01 -9.441801213184618513e-01 -3.949739287270091492e-01 1.299525119524165717e+00 -6.560941589304428723e-01 1.218702999188925051e-01 -7.975768353848060321e-02 -4.915193746344860282e-01 -3.537195466527772170e-01 -1.005995102852428102e+00 -8.613556256756932372e-02 -2.784710642112955478e-02 1.006152968599580255e+00 -5.901808386186134792e-01 2.335280743928517477e+00 -1.031149235599822411e+00 -1.907239340490182178e-01 -5.822027048496615231e-01 -7.489932660331732883e-02 -2.653311833090700178e-01 -1.366840205395399854e+00 -2.455650547918450666e-01 -5.387526004941903812e-01 1.233110948275116803e+00 1.784520576457930274e-01 2.099017941143139776e-01 -9.955610511408067298e-01 -6.688164926447606184e-01 -1.089325077418488857e-01 -1.229691895008615976e+00 -8.900306273831914972e-01 -7.111553661220683109e-01 4.724803541513761806e-01 3.608235052746316257e-02 -7.062008499207244050e-01 3.197958945179701917e-01 4.532279320882398044e-01 -4.141276204205910916e-01 -2.476049682086309267e-01 -3.801628306318030059e-01 -4.519367239739092157e-01 9.057159006254952294e-01 -1.690084977979007030e+00 -5.742919339891034980e-01 -2.004601883049857702e-01 1.091853500476299921e+00 -1.474187885017628208e+00 5.173296529628782503e-01 1.200466162958446326e+00 -1.269133134983632782e+00 8.936286294445100475e-01 -3.779897340602534905e-01 2.767844203980721063e-01 -1.009672294897660111e-01 7.288918656360027226e-01 1.511844779251216575e-01 -3.035439500920774081e-01 -4.577726144117975071e-01 -9.459798936801332436e-01 4.881851677793209721e-01 3.733046694924854192e-01 -3.060949988595778604e-01 1.024356894706874410e+00 1.998004431792644794e-02 7.197701050863773709e-02 -5.453269118210386512e-01 3.794820024584164564e-01 4.911794747684674611e-01 -6.415766808405265476e-01 2.028271460709210494e+00 2.641526409445800638e+00 1.509650599632001766e+00 7.250712060225118494e-01 9.571806484178264907e-02 -2.132817666095328801e-01 -3.636558327512276478e-01 3.071614925390369066e-01 -8.710044624169509531e-01 -4.364869638006471653e-01 1.264656844009818482e+00 5.435482225070324969e-01 7.967314565954952688e-01 -1.062313579593849866e+00 1.696167694340781740e+00 9.084196729334004239e-01 5.097793507953292114e-01 4.683599038844982743e-01 -9.182243185391115725e-01 1.000597842650112979e+00 8.273646106324921146e-01 1.851035534959232454e+00 -5.550600807529576519e-02 6.031911359107986620e-02 3.810529466198182141e-02 -1.585460611050324875e+00 -1.055714071453938141e+00 -7.202030788945279483e-01 -7.151133226557212508e-01 -2.248548171157547793e-01 -1.077612673109406227e+00 -1.122727309789086192e+00 8.464277994873157240e-01 6.530967666172479147e-01 1.615688044974933346e+00 2.872282423025138837e-02 3.145235899396224832e-01 -1.133457038388696159e+00 1.000018830170329442e+00 3.926362815395353922e-01 -1.051213612108409912e+00 -3.214599126215041125e-02 -1.469909569003597927e+00 1.426000779806237961e-01 -7.921312384390630790e-01 -1.995860131578882091e-01 9.787007836566691266e-02 -5.880421948322731573e-01 4.108108970683680208e-03 -4.236730988062215042e-01 3.852227620714734901e-01 -8.564705292654420932e-01 1.183813126406237926e+00 6.715197507319911052e-01 3.450410443247975967e-01 4.587804869343334868e-01 1.359774299103477802e-01 -1.639196671563085406e-01 -1.867114701238404839e-01 9.239162271880660970e-01 -4.098924989432408128e-01 2.776328845114314769e-01 -1.477150310324939347e-02 9.075496115517009965e-01 8.133623816586885713e-01 -4.214604072427151349e-02 5.541859056058600491e-02 -7.567199458921660682e-01 9.660900358287747292e-01 -6.404207127636586672e-02 -1.048022872821503942e-01 -5.532078578824604076e-01 4.450646788763730766e-01 -3.785692607607116233e-01 3.805562094479968960e-01 -6.927236402558540895e-01 4.662109756846626318e-01 1.448371950261813534e+00 -8.634469611599553396e-01 3.464330396913817278e-01 -1.502485962970525057e-01 -1.070549852141532865e+00 1.736030081048429485e+00 2.532603671896772379e+00 4.973701774719422319e-01 -4.323315465278851910e-01 -4.360437055790011840e-02 5.503498193721261672e-02 -1.082002060789185371e+00 1.534007690333512863e-01 -9.503708240219368442e-01 3.842817382366567336e-01 1.001679248729139937e+00 -7.881768814501336484e-01 3.000487921657114532e-01 4.527831312045696444e-01 -1.136178294199543526e+00 -1.472509982955875874e+00 5.918242878951567310e-01 -6.084187032904420089e-01 -1.193575605916618265e+00 1.419660438886406750e-01 1.128925211582007676e-01 7.672059338919384741e-01 1.203389507494475180e-01 1.253264799181113442e+00 -3.095510760146616969e-01 1.270200657104441300e+00 -3.863463342458312022e-01 -1.443295563760550682e+00 9.715495167327364845e-01 -1.273189821886840378e-01 -1.156333173546889442e-01 2.731638440491314768e+00 2.385546843327975564e-01 7.145682487404722005e-01 -4.938986736966154978e-01 6.021061302870481802e-01 3.827015381031092511e-01 -8.520312621802109687e-01 -1.820670804114462138e+00 -1.771865605652006292e-01 -2.926049336778385190e-01 5.450672303802832630e-01 -1.132476419561922798e+00 -9.719639785965955570e-01 1.348455787831263741e+00 -6.158461067167225744e-02 -2.916690520497693950e-01 -2.614842984411660520e-01 -7.394200197311057154e-01 -6.006287742884534042e-01 1.864768826520134981e+00 1.355025985392713794e+00 -1.759078994353343139e+00 -8.041331489880376715e-02 -3.175785749683909809e-01 1.789751229161621993e+00 9.130101208970119453e-01 7.732958493431597580e-01 1.157659348667103849e+00 6.232462564472405209e-01 6.473066418194134419e-01 3.668018348394292416e-01 4.303492258266728432e-01 4.559029080383582566e-01 -1.814088265256817711e-01 -4.952495314092186240e-01 1.461697979048303397e-01 -1.818251910060375787e+00 -4.845681395530361812e-01 5.367193719461764712e-01 7.366211165983692355e-02 1.206305138720382975e-01 -5.521747885468609729e-01 -5.330725189207553560e-01 6.631466954848209694e-01 7.416759058312921704e-02 6.017744579518259362e-01 -7.833689181410972979e-02 1.669421534384320394e+00 -3.531359061869208671e-01 -1.448328241504458769e-01 4.310249117933118157e-02 1.180180157339035363e+00 -4.067177004972524768e-02 -5.323886054233202270e-01 -1.065326912747962318e+00 1.913142593836464345e-01 1.405467948262940914e-01 -4.288826684622479846e-01 -9.407502694177909408e-01 1.124182554298665870e+00 -2.113426404450006457e-01 -2.547346378642235010e+00 1.007218433837689942e+00 -7.299850987905495137e-01 -1.563230851280308920e-03 8.226209249078011432e-01 -9.643643112442693011e-02 -3.705942123158083024e-01 -1.552857991828984652e+00 -1.013369541549208053e-01 4.382085746197544873e-02 6.365146925181569548e-01 -5.612353568361896361e-01 5.726104323826276821e-02 4.139517569498220029e-01 -6.452754701540985849e-01 2.965993998793995390e-01 -1.388326402069707699e+00 2.259233676779128508e-01 -4.107137093608377865e-01 -1.109924757649505267e-01 5.244022441235720589e-01 -2.887040556390844254e-02 9.207830806167335291e-01 7.097844538031495842e-01 9.890962688176829776e-01 -5.623208766806148812e-02 -6.846195224215851916e-01 -2.082917691816302264e-01 1.493341576711210150e+00 -8.624514299336136780e-01 -3.472532216676291750e-01 1.047095218724231058e+00 8.536371733474967805e-02 -4.413391500877132390e-01 -2.876673867587617450e-01 4.525100800262703005e-01 -3.803592629295626248e-01 -4.008704972045194492e-01 6.291546520002704312e-01 8.011501548537359740e-01 -8.788730671821782803e-01 -1.085384604387778174e+00 4.218496722935108911e-01 1.789909609129449186e-01 -1.771800299626311359e+00 -3.096775743006534576e-01 -5.382995720797238981e-01 6.758140075869391028e-01 -1.702337828217266036e-01 -2.342480861816552407e-02 -4.736862016336960135e-01 -7.378501040110534426e-01 5.071876785945224064e-01 -3.858511397360341877e-01 1.110788134162432828e+00 3.281540373655721932e-01 -7.376768116436582812e-01 3.799586850239219937e-01 7.309497767764052689e-01 -8.092599291154273233e-01 -5.258070950070252714e-01 1.379119795108746382e+00 1.484400821839101103e-01 -1.782612817754558598e-01 -5.513119262546082311e-01 -1.461944804972189482e-01