1.425799999999999912e+01 0.000000000000000000e+00 0.000000000000000000e+00 0.000000000000000000e+00 1.425799999999999912e+01 0.000000000000000000e+00 0.000000000000000000e+00 0.000000000000000000e+00 1.425799999999999912e+01
1.388400000000000034e+01 0.000000000000000000e+00 0.000000000000000000e+00 0.000000000000000000e+00 1.388400000000000034e+01 0.000000000000000000e+00 0.000000000000000000e+00 0.000000000000000000e+00 1.388400000000000034e+01
1.410299999999999976e+01 0.000000000000000000e+00 0.000000000000000000e+00 0.000000000000000000e+00 1.410299999999999976e+01 0.000000000000000000e+00 0.000000000000000000e+00 0.000000000000000000e+00 1.410299999999999976e+01
1.452500000000000036e+01 0.000000000000000000e+00 0.000000000000000000e+00 0.000000000000000000e+00 1.452500000000000036e+01 0.000000000000000000e+00 0.000000000000000000e+00 0.000000000000000000e+00 1.452500000000000036e+01
1.490700000000000003e+01 0.000000000000000000e+00 0.000000000000000000e+00 0.000000000000000000e+00 1.490700000000000003e+01 0.000000000000000000e+00 0.000000000000000000e+00 0.000000000000000000e+00 1.490700000000000003e+01
1.410100000000000087e+01 0.000000000000000000e+00 0.000000000000000000e+00 0.000000000000000000e+00 1.410100000000000087e+01 0.000000000000000000e+00 0.000000000000000000e+00 0.000000000000000000e+00 1.410100000000000087e+01
1.450000000000000000e+01 0.000000000000000000e+00 0.000000000000000000e+00 0.000000000000000000e+00 1.450000000000000000e+01 0.000000000000000000e+00 0.000000000000000000e+00 0.000000000000000000e+00 1.450000000000000000e+01
1.398700000000000010e+01 0.000000000000000000e+00 0.000000000000000000e+00 0.000000000000000000e+00 1.398700000000000010e+01 0.000000000000000000e+00 0.000000000000000000e+00 0.000000000000000000e+00 1.398700000000000010e+01
1.438499999999999979e+01 0.000000000000000000e+00 0.000000000000000000e+00 0.000000000000000000e+00 1.438499999999999979e+01 0.000000000000000000e+00 0.000000000000000000e+00 0.000000000000000000e+00 1.438499999999999979e+01
1.426699999999999946e+01 0.000000000000000000e+00 0.000000000000000000e+00 0.000000000000000000e+00 1.426699999999999946e+01 0.000000000000000000e+00 0.000000000000000000e+00 0.000000000000000000e+00 1.426699999999999946e+01
1.445299999999999940e+01 0.000000000000000000e+00 0.000000000000000000e+00 0.000000000000000000e+00 1.445299999999999940e+01 0.000000000000000000e+00 0.000000000000000000e+00 0.000000000000000000e+00 1.445299999999999940e+01
1.423799999999999955e+01 0.000000000000000000e+00 0.000000000000000000e+00 0.000000000000000000e+00 1.423799999999999955e+01 0.000000000000000000e+00 0.000000000000000000e+00 0.000000000000000000e+00 1.423799999999999955e+01
1.439199999999999946e+01 0.000000000000000000e+00 0.000000000000000000e+00 0.000000000000000000e+00 1.439199999999999946e+01 0.000000000000000000e+00 0.000000000000000000e+00 0.000000000000000000e+00 1.439199999999999946e+01
1.391099999999999959e+01 0.000000000000000000e+00 0.000000000000000000e+00 0.000000000000000000e+00 1.391099999999999959e+01 0.000000000000000000e+00 0.000000000000000000e+00 0.000000000000000000e+00 1.391099999999999959e+01
1.466200000000000081e+01 0.000000000000000000e+00 0.000000000000000000e+00 0.000000000000000000e+00 1.466200000000000081e+01 0.000000000000000000e+00 0.000000000000000000e+00 0.000000000000000000e+00 1.466200000000000081e+01
1.458799999999999919e+01 0.000000000000000000e+00 0.000000000000000000e+00 0.000000000000000000e+00 1.458799999999999919e+01 0.000000000000000000e+00 0.000000000000000000e+00 0.000000000000000000e+00 1.458799999999999919e+01
1.406099999999999994e+01 0.000000000000000000e+00 0.000000000000000000e+00 0.000000000000000000e+00 1.406099999999999994e+01 0.000000000000000000e+00 0.000000000000000000e+00 0.000000000000000000e+00 1.406099999999999994e+01
1.473000000000000043e+01 0.000000000000000000e+00 0.000000000000000000e+00 0.000000000000000000e+00 1.473000000000000043e+01 0.000000000000000000e+00 0.000000000000000000e+00 0.000000000000000000e+00 1.473000000000000043e+01
1.406000000000000050e+01 0.000000000000000000e+00 0.000000000000000000e+00 0.000000000000000000e+00 1.406000000000000050e+01 0.000000000000000000e+00 0.000000000000000000e+00 0.000000000000000000e+00 1.406000000000000050e+01
1.438700000000000045e+01 0.000000000000000000e+00 0.000000000000000000e+00 0.000000000000000000e+00 1.438700000000000045e+01 0.000000000000000000e+00 0.000000000000000000e+00 0.000000000000000000e+00 1.438700000000000045e+01
1.435200000000000031e+01 0.000000000000000000e+00 0.000000000000000000e+00 0.000000000000000000e+00 1.435200000000000031e+01 0.000000000000000000e+00 0.000000000000000000e+00 0.000000000000000000e+00 1.435200000000000031e+01
1.409600000000000009e+01 0.000000000000000000e+00 0.000000000000000000e+00 0.000000000000000000e+00 1.409600000000000009e+01 0.000000000000000000e+00 0.000000000000000000e+00 0.000000000000000000e+00 1.409600000000000009e+01
1.475999999999999979e+01 0.000000000000000000e+00 0.000000000000000000e+00 0.000000000000000000e+00 1.475999999999999979e+01 0.000000000000000000e+00 0.000000000000000000e+00 0.000000000000000000e+00 1.475999999999999979e+01
1.401699999999999946e+01 0.000000000000000000e+00 0.000000000000000000e+00 0.000000000000000000e+00 1.401699999999999946e+01 0.000000000000000000e+00 0.000000000000000000e+00 0.000000000000000000e+00 1.401699999999999946e+01
1.409699999999999953e+01 0.000000000000000000e+00 0.000000000000000000e+00 0.000000000000000000e+00 1.409699999999999953e+01 0.000000000000000000e+00 0.000000000000000000e+00 0.000000000000000000e+00 1.409699999999999953e+01
1.439199999999999946e+01 0.000000000000000000e+00 0.000000000000000000e+00 0.000000000000000000e+00 1.439199999999999946e+01 0.000000000000000000e+00 0.000000000000000000e+00 0.000000000000000000e+00 1.439199999999999946e+01
1.392099999999999937e+01 0.000000000000000000e+00 0.000000000000000000e+00 0.000000000000000000e+00 1.392099999999999937e+01 0.000000000000000000e+00 0.000000000000000000e+00 0.000000000000000000e+00 1.392099999999999937e+01
1.401699999999999946e+01 0.000000000000000000e+00 0.000000000000000000e+00 0.000000000000000000e+00 1.401699999999999946e+01 0.000000000000000000e+00 0.000000000000000000e+00 0.000000000000000000e+00 1.401699999999999946e+01
1.449200000000000088e+01 0.000000000000000000e+00 0.000000000000000000e+00 0.000000000000000000e+00 1.449200000000000088e+01 0.000000000000000000e+00 0.000000000000000000e+00 0.000000000000000000e+00 1.449200000000000088e+01
1.393699999999999939e+01 0.000000000000000000e+00 0.000000000000000000e+00 0.000000000000000000e+00 1.393699999999999939e+01 0.000000000000000000e+00 0.000000000000000000e+00 0.000000000000000000e+00 1.393699999999999939e+01
1.414199999999999946e+01 0.000000000000000000e+00 0.000000000000000000e+00 0.000000000000000000e+00 1.414199999999999946e+01 0.000000000000000000e+00 0.000000000000000000e+00 0.000000000000000000e+00 1.414199999999999946e+01
1.415199999999999925e+01 0.000000000000000000e+00 0.000000000000000000e+00 0.000000000000000000e+00 1.415199999999999925e+01 0.000000000000000000e+00 0.000000000000000000e+00 0.000000000000000000e+00 1.415199999999999925e+01
1.422400000000000020e+01 0.000000000000000000e+00 0.000000000000000000e+00 0.000000000000000000e+00 1.422400000000000020e+01 0.000000000000000000e+00 0.000000000000000000e+00 0.000000000000000000e+00 1.422400000000000020e+01
1.439199999999999946e+01 0.000000000000000000e+00 0.000000000000000000e+00 0.000000000000000000e+00 1.439199999999999946e+01 0.000000000000000000e+00 0.000000000000000000e+00 0.000000000000000000e+00 1.439199999999999946e+01
1.393699999999999939e+01 0.000000000000000000e+00 0.000000000000000000e+00 0.000000000000000000e+00 1.393699999999999939e+01 0.000000000000000000e+00 0.000000000000000000e+00 0.000000000000000000e+00 1.393699999999999939e+01
1.456600000000000072e+01 0.000000000000000000e+00 0.000000000000000000e+00 0.000000000000000000e+00 1.456600000000000072e+01 0.000000000000000000e+00 0.000000000000000000e+00 0.000000000000000000e+00 1.456600000000000072e+01
