1.361898300000000006e+01 1.134328299999999956e+01 1.181238300000000052e+01 1.750323000000000073e+00 1.196248300000000064e+01 1.194058300000000017e+01 9.479983000000000715e+00 7.494652999999999565e+00 1.333608300000000035e+01 1.128548299999999927e+01 3.053373000000000115e+00 1.267138300000000051e+01 6.838223000000000162e+00 1.578743000000000007e+00 8.919012999999999636e+00 9.312882999999999356e+00 3.276653000000000038e+00 8.993062999999999363e+00 6.390222999999999764e+00 8.133302999999999727e+00 5.490273000000000181e+00 6.439062999999999981e+00 4.583072999999999730e+00 6.321733000000000047e+00 7.806330000000000213e-01 9.757683000000000106e+00 7.087502999999999886e+00 3.850662999999999947e+00 4.319153000000000020e+00 6.976830000000000531e-01 9.201983000000000246e+00 5.257629999999999804e-01 8.600229999999999819e-01 8.328013000000000332e+00 1.313288299999999964e+01 6.819213000000000413e+00 1.304068299999999958e+01 4.536762999999999657e+00 1.387168300000000087e+01 1.273729999999999862e-01 1.309868299999999941e+01 6.465663000000000160e+00 2.731183000000000138e+00 1.006842999999999932e+00 8.748863000000000056e+00 4.963862999999999914e+00 3.937430000000000097e-01 8.044992999999999839e+00 1.002108300000000085e+01 1.137898299999999985e+01 1.132568299999999972e+01 6.189542999999999573e+00 1.089418299999999995e+01 1.304658300000000004e+01 7.960523000000000238e+00 1.330738299999999974e+01 2.290223000000000120e+00 1.423088300000000039e+01 3.820702999999999960e+00 1.896652999999999922e+00 5.841229999999999478e-01 7.351202999999999932e+00 1.183238300000000010e+01 6.457613000000000270e+00 1.201598300000000030e+01 5.704443000000000374e+00 5.404302999999999635e+00 9.727482999999999436e+00 9.952882999999999925e+00 2.031543000000000099e+00 3.797172999999999909e+00 1.092058300000000060e+01 5.072403000000000439e+00 1.202528299999999994e+01 1.842443000000000053e+00 8.135433000000000803e+00 1.236388299999999951e+01 1.239338300000000004e+01 1.387038300000000035e+01 8.127643000000000839e+00 2.440913000000000110e+00 2.125742999999999938e+00 4.425423000000000329e+00 3.132213000000000136e+00 1.277478299999999933e+01 1.216958299999999937e+01 2.527273000000000103e+00 9.540882999999999114e+00 1.375328299999999970e+01 1.106128299999999953e+01 3.709423000000000137e+00 1.134828300000000034e+01 9.426583000000000823e+00 2.367423000000000055e+00 6.084122999999999948e+00 7.253022999999999776e+00 5.338873000000000424e+00 2.652603000000000044e+00 5.556943000000000410e+00 1.087428300000000014e+01 2.557462999999999820e+00 7.226372999999999713e+00 5.556722999999999857e+00 1.761042999999999914e+00 1.358288300000000071e+01 8.728042999999999552e+00 3.519572999999999841e+00 1.285758299999999998e+01 6.385513000000000439e+00 1.013258300000000034e+01 9.124529999999999585e-01 9.403083000000000524e+00 3.080829999999999957e-01 5.227763000000000382e+00 2.146853000000000122e+00 5.557299999999999740e-02 1.093638299999999930e+01 1.360218300000000013e+01 1.789333000000000062e+00 3.227492999999999945e+00 1.938712999999999909e+00 1.104468299999999914e+01 5.388473000000000290e+00 8.343382999999999328e+00 7.207783000000000051e+00 6.871963000000000044e+00 8.146193000000000239e+00 5.433473000000000219e+00 2.266173000000000215e+00 1.107458300000000051e+01 1.314908299999999919e+01 3.912212999999999941e+00 5.308230000000000448e-01 1.170678299999999972e+01 1.433643000000000001e+00 2.748923000000000005e+00 3.940830000000000166e-01 9.957230000000000247e-01 2.179432999999999954e+00 1.091678300000000057e+01 2.929482999999999837e+00 8.094343000000000288e+00 1.077768299999999968e+01 2.519623000000000168e+00 3.370092999999999783e+00 6.986652999999999558e+00 5.326802999999999955e+00 1.173678300000000085e+01 5.021783000000000108e+00 9.805082999999999771e+00 1.394968300000000028e+01 8.743112999999999246e+00 1.025078300000000020e+01 9.565082999999999558e+00 8.988753000000000881e+00 3.050403000000000198e+00 7.140803000000000011e+00 4.022293000000000340e+00 8.341383000000000436e+00 1.397518299999999947e+01 4.075652999999999970e+00 1.019328299999999921e+01 8.663543000000000660e+00 1.109038299999999921e+01 8.319812999999999903e+00 1.273468300000000042e+01 1.086638300000000079e+01 9.595083000000000695e+00 1.171543000000000001e+00 1.454833000000000043e+00 1.367868299999999948e+01 1.075922999999999963e+00 7.587473000000000134e+00 4.400883000000000322e+00 7.843982999999999706e+00 9.718683000000000405e+00 1.040558300000000003e+01 6.147682999999999787e+00 6.061503000000000085e+00 1.137448299999999968e+01 7.908122999999999791e+00 5.887283000000000044e+00 1.304858300000000071e+01 5.285862999999999978e+00 1.009148300000000020e+01 6.431733000000000366e+00 4.756052999999999642e+00 7.317133000000000109e+00 9.879882999999999527e+00 3.388523000000000174e+00 1.168888300000000058e+01 7.131153000000000297e+00 1.250688300000000019e+01 1.248338299999999990e+01 7.854173000000000293e+00 1.230138299999999951e+01 1.259798299999999927e+01 1.309038299999999921e+01 2.343552999999999997e+00 8.333242999999999512e+00 1.315198299999999954e+01 4.186993000000000187e+00 1.195048300000000019e+01 1.229218299999999964e+01 7.235712999999999617e+00 2.408742999999999856e+00 1.116338299999999961e+01 1.192348299999999917e+01 6.361902999999999864e+00 2.204873000000000083e+00 1.216548300000000005e+01 1.115478300000000011e+01 4.615923000000000442e+00 2.359853000000000200e+00 3.725833000000000172e+00 1.331318300000000043e+01 1.333428299999999922e+01 4.435430000000000206e-01 1.306458300000000072e+01 1.006738299999999953e+01 8.952543000000000362e+00 1.071218299999999957e+01 2.075452999999999992e+00 1.011358300000000021e+01 7.219029999999999614e-01 1.254338300000000039e+01 6.800713000000000008e+00 1.398158300000000054e+01 1.680992999999999959e+00 1.003928299999999929e+01 9.432183000000000206e+00 1.221518299999999968e+01 1.962312999999999974e+00 5.330053000000000374e+00 1.205778300000000058e+01 5.928330000000000544e-01 7.310522999999999882e+00 7.556322999999999901e+00 1.909443000000000001e+00 4.675593000000000110e+00 8.767103000000000534e+00 5.264273000000000202e+00 5.452193000000000289e+00 1.185088299999999961e+01 8.847333000000000780e+00 5.838173000000000279e+00 1.320198300000000025e+01 6.756173000000000428e+00 5.499152999999999736e+00 5.666502999999999624e+00 3.816342999999999819e+00 1.213678299999999943e+01 7.956762999999999586e+00 7.611983000000000388e+00 3.769403000000000059e+00 1.016368300000000069e+01 5.098012999999999906e+00 3.279993000000000158e+00 7.787893000000000399e+00 1.392352999999999952e+00 2.540223000000000120e+00 1.267878299999999925e+01 9.035142999999999702e+00 5.364330000000000487e-01 1.395523000000000069e+00 8.142930000000000446e-01 6.809352999999999767e+00 4.308593000000000117e+00 4.971829999999999861e-01 5.666312999999999711e+00 4.199862999999999680e+00 5.728473000000000148e+00 3.561682999999999932e+00 1.052488300000000088e+01 6.729022999999999755e+00 1.111438300000000012e+01 4.374272999999999634e+00 1.171210000000000029e-01 1.202758299999999991e+01 1.607882999999999951e+00 4.252342999999999762e+00 8.721932999999999936e+00 2.689862999999999893e+00 7.092452999999999896e+00 1.108688300000000027e+01 5.778692999999999635e+00 4.981053000000000175e+00 1.936163000000000078e+00 1.045348300000000030e+01 1.805512999999999924e+00 1.076328299999999949e+01 1.042898300000000056e+01 9.006413000000000224e+00 7.130530000000000479e-01 6.163729999999999487e-01 1.767430000000000112e-01 4.549822999999999951e+00 4.560723000000000305e+00 1.279968299999999992e+01 4.128483000000000125e+00 9.744583000000000439e+00 8.999242999999999881e+00 7.329812999999999690e+00 3.160302999999999862e+00 2.450073000000000167e+00 2.325133000000000116e+00 2.885730000000000239e-01 7.488063000000000358e+00 7.819963000000000442e+00 1.269308299999999967e+01 5.880412999999999890e+00 7.734033000000000158e+00 1.139118299999999984e+01 2.726800000000000057e-02 1.207000000000000087e-02 5.129332999999999920e+00 1.412138299999999980e+01 6.548429999999999529e-01 8.244863000000000497e+00 4.077672999999999881e+00 9.125543000000000404e+00 5.383232999999999713e+00 5.173013000000000083e+00 1.211638300000000079e+01 2.658142999999999923e+00 1.073928300000000036e+01 1.008098299999999981e+01 4.717393000000000391e+00 8.634282999999999930e+00 9.436483000000000843e+00 8.801823000000000619e+00 8.129322999999999411e+00 7.807813000000000336e+00 2.661643000000000203e+00 1.010378299999999996e+01 1.963932999999999929e+00 4.792529999999999846e-01 1.308708299999999980e+01 5.072792999999999886e+00 4.250392999999999866e+00 1.244898300000000013e+01 2.859402999999999917e+00 5.441132999999999775e+00 8.634530000000000260e-01 1.252178299999999922e+01 7.539633000000000251e+00 4.669373000000000218e+00 5.462893000000000221e+00 1.234988300000000017e+01 7.788503000000000398e+00 5.131912999999999947e+00 1.170818300000000001e+01 1.307928300000000021e+01 2.652702999999999811e+00 8.037922999999999263e+00 2.451672999999999991e+00 1.227488300000000088e+01 5.502862999999999616e+00 1.202588300000000032e+01 4.786463000000000356e+00 1.292358300000000071e+01 9.475082999999999700e+00 9.659383000000000052e+00 4.065432999999999630e+00 8.431629999999999958e-01 8.980852999999999753e+00 3.916443000000000119e+00 3.077313000000000187e+00 1.320602999999999971e+00 6.520213000000000036e+00 9.506183000000000050e+00 1.069908299999999990e+01 1.554702999999999946e+00 1.029508299999999998e+01 8.093322999999999823e+00 1.245508300000000013e+01 7.142230000000000523e-01 5.995772999999999797e+00 4.908282999999999952e+00 5.182773000000000074e+00 8.317430000000000101e-01 1.269368300000000005e+01 8.119773000000000351e+00 1.379678299999999957e+01 1.008848300000000009e+01 1.410528300000000002e+01 4.092253000000000362e+00 2.607343000000000188e+00 3.174622999999999973e+00 3.322293000000000163e+00 1.577412999999999954e+00 1.312988299999999953e+01 1.118468299999999971e+01 1.144758299999999984e+01 2.075092999999999854e+00 1.170738300000000010e+01 6.208029999999999937e-01 1.409068300000000029e+01 7.332532999999999745e+00 2.670602999999999838e+00 9.195183000000000106e+00 1.413808299999999996e+01 8.182693000000000438e+00 1.074718299999999971e+01 9.514182999999999168e+00 9.582929999999999504e-01 7.989812999999999832e+00 1.298138299999999923e+01 8.471133000000000024e+00 1.237988299999999953e+01 7.995632999999999768e+00 1.064672999999999981e+00 8.933892999999999418e+00 1.002528299999999994e+01 7.538503000000000398e+00 2.360433000000000003e+00 3.400773000000000046e+00 1.016648299999999949e+01 6.674472999999999878e+00 1.243748300000000029e+01 4.539742999999999640e+00 1.413398300000000063e+01 6.893202999999999747e+00 1.129508299999999998e+01 2.837112999999999996e+00 5.919152999999999665e+00 8.036929999999999907e-01 4.498192999999999664e+00 2.758802999999999894e+00 8.735343000000000302e+00 1.487443000000000071e+00 5.235513000000000083e+00 5.462762999999999813e+00 3.122093000000000007e+00 1.334158299999999997e+01 6.532352999999999632e+00 5.026252999999999638e+00 7.639872999999999692e+00 9.742383000000000237e+00 3.158492999999999995e+00 7.649752999999999581e+00 7.237413000000000096e+00 1.309138300000000044e+01 5.989213000000000342e+00 8.369182999999999595e+00 6.871023000000000103e+00 1.394218299999999999e+01 4.645382999999999818e+00 1.305258300000000027e+01 1.157418299999999967e+01 6.300633000000000372e+00 4.569130000000000136e-01 8.434513000000000815e+00 1.395122999999999891e+00 1.199778300000000009e+01 2.556102999999999792e+00 8.423273000000000010e+00 1.561973000000000056e+00 1.307312999999999947e+00 9.165782999999999348e+00 8.182693000000000438e+00 4.119493000000000293e+00 2.239212999999999898e+00 1.551692999999999989e+00 7.609442999999999735e+00 9.117632999999999655e+00 1.133188299999999948e+01 1.233828300000000056e+01 1.147818299999999958e+01 5.436283000000000420e+00 3.162622999999999962e+00 6.560812999999999562e+00 9.806082999999999217e+00 1.385558299999999932e+01 1.211698299999999939e+01 1.017968300000000070e+01 5.605032999999999710e+00 7.533142999999999923e+00 1.538942999999999950e+00 1.010288300000000028e+01 3.074022999999999950e+00 6.344229999999999592e-01 1.177808300000000052e+01 1.356998300000000057e+01 1.224518300000000082e+01 7.070732999999999713e+00 1.086358300000000021e+01 7.852763000000000382e+00 1.039768300000000067e+01 1.276378300000000010e+01 5.785313000000000372e+00 6.379012999999999600e+00 9.984083000000000041e+00 2.893972999999999907e+00 1.007798299999999969e+01 2.536913000000000196e+00 3.737413000000000096e+00 9.614883000000000735e+00 9.933882999999999797e+00 8.415853000000000250e+00 1.840343000000000062e+00 1.182658299999999940e+01 1.366428299999999929e+01 8.007592999999999961e+00 1.581503000000000103e+00 4.721929999999999739e-01 2.817930000000000157e-01 1.797393000000000018e+00 7.252330000000000165e-01 9.763282999999999490e+00 1.244038300000000064e+01 3.496382999999999797e+00 1.323648299999999978e+01 3.517100000000000087e-02 5.831730000000000524e-01 3.399443000000000215e+00 1.096468300000000085e+01 8.662642999999999205e+00 6.888313000000000130e+00 1.283878299999999939e+01 7.247012999999999927e+00 2.727402999999999800e+00 6.465042999999999651e+00 1.084358300000000064e+01 6.500792999999999822e+00 1.182378300000000060e+01 5.102702999999999989e+00 8.424322999999999340e+00 2.892742999999999842e+00 1.185398299999999949e+01 1.266258299999999970e+01 1.003798300000000054e+01 5.831229999999999469e-01 1.046248300000000064e+01 1.059388299999999994e+01 5.494753000000000220e+00 1.043668300000000038e+01 1.277078299999999977e+01 2.319903000000000048e+00 4.154252999999999751e+00 2.361222999999999850e+00 7.868542999999999843e+00 4.876083000000000389e+00 6.946183000000000440e+00 1.204028300000000051e+01 1.302338300000000082e+01 9.299682999999999922e+00 1.035068300000000008e+01 3.125252999999999837e+00 6.572230000000000016e-01 1.112738300000000002e+01 1.220058299999999996e+01 1.371608299999999936e+01 9.025472999999999857e+00 1.467832999999999943e+00 5.837093000000000309e+00 1.304788300000000056e+01 1.155402999999999958e+00 2.225930000000000131e-01 4.120912999999999826e+00 8.897743000000000180e+00 4.092183000000000348e+00 1.052538299999999971e+01 6.951463000000000392e+00 9.141382999999999370e+00 6.159843000000000401e+00 6.420652999999999722e+00 7.759142999999999901e+00 1.205498300000000000e+01 2.800653000000000059e+00 7.021663000000000210e+00 7.329862999999999573e+00 6.365133000000000152e+00 7.941932999999999687e+00 4.551352999999999760e+00 1.337708300000000072e+01 7.472832999999999615e+00 6.486899999999999611e-02 2.992472999999999939e+00 5.669613000000000014e+00 1.121993000000000018e+00 5.524829999999999464e-01 1.377388299999999965e+01 4.494423000000000279e+00 7.795929999999999804e-01 1.362298299999999962e+01 7.753553000000000139e+00 1.115258299999999991e+01 1.261938299999999913e+01 6.454929999999999835e-01 1.422728299999999990e+01 1.388418300000000016e+01 2.542962999999999862e+00 2.189452999999999872e+00 9.451883000000000479e+00 4.946913000000000338e+00 2.137763000000000080e+00 1.005868300000000026e+01 3.522383000000000042e+00 1.310588300000000039e+01 1.063978299999999955e+01 1.016828300000000063e+01 1.092828300000000041e+01 1.076942999999999984e+00 1.099208299999999916e+01 4.155929999999999902e-01 7.461913000000000018e+00 6.293463000000000029e+00 1.178608299999999964e+01 8.310283000000000087e+00 1.357748300000000086e+01 1.181688300000000069e+01 9.446282999999999319e+00 1.378148299999999971e+01 6.344852999999999632e+00 1.335888300000000051e+01 1.166958299999999937e+01 1.048948299999999989e+01 2.971642999999999812e+00 1.090243000000000073e+00 2.232152999999999832e+00 1.271468300000000085e+01 4.311982999999999677e+00 1.047418300000000002e+01 6.529003000000000334e+00 2.746703000000000117e+00 8.225723000000000340e+00 5.273482999999999699e+00 4.040273000000000003e+00 5.821412999999999727e+00 7.392533000000000243e+00 9.821082999999999785e+00 1.815752999999999950e+00 2.444052999999999809e+00 1.210528300000000002e+01 6.176553000000000182e+00 3.378572999999999826e+00 1.227508300000000041e+01 8.422833000000000681e+00 1.597332999999999892e+00 2.753273000000000081e+00 1.381208299999999944e+01 1.173648299999999978e+01 6.360802999999999763e+00 8.131429999999999492e-01 5.236773000000000344e+00 8.856052999999999287e+00 5.811143000000000391e+00 4.116972999999999772e+00 1.395208300000000001e+01 4.607973000000000319e+00 1.157288299999999914e+01 9.824982999999999578e+00 7.615830000000000100e-01 2.093973000000000084e+00 4.788022999999999918e+00 7.516523000000000287e+00 1.139008300000000062e+01 1.291438300000000083e+01 1.404498300000000022e+01 1.361598299999999995e+01 6.705503000000000213e+00 8.386782999999999433e+00 1.350288300000000064e+01 1.220908299999999969e+01 1.411332999999999949e+00 1.386739999999999917e-01 1.206053000000000042e+00 1.277408299999999919e+01 1.164708300000000030e+01 1.726952999999999960e+00 8.038342999999999350e+00 1.459893000000000107e+00 6.521552999999999933e+00 1.120778299999999916e+01 7.656030000000000335e-01 8.129243000000000663e+00 3.214522999999999797e+00 3.442712999999999912e+00 6.353032999999999930e+00 6.477682999999999858e+00 6.097183000000000241e+00 3.195342999999999822e+00 1.097708300000000037e+01 1.292998300000000000e+01 1.116308300000000031e+01 3.464532999999999863e+00 1.312138299999999980e+01 5.788883000000000223e+00 1.323538300000000056e+01 4.919942999999999955e+00 1.078978299999999990e+01 1.246588299999999983e+01 2.790493000000000112e+00 4.720182999999999574e+00 1.411398299999999928e+01 9.919283000000000072e+00 8.689752999999999616e+00 1.375338299999999947e+01 1.143458299999999994e+01 1.230288299999999957e+01 4.920683000000000362e+00 7.100952999999999626e+00 4.788702999999999932e+00 1.631402999999999937e+00 3.491982999999999837e+00 6.792753000000000263e+00 1.003418300000000052e+01 1.297328300000000034e+01 1.358458300000000030e+01 1.235488299999999917e+01 2.196629999999999971e-01 6.677633000000000152e+00 5.049023000000000039e+00 4.928112999999999744e+00 1.098968299999999942e+01 9.691482999999999848e+00 5.256632999999999889e+00 1.074608300000000050e+01 1.468342999999999954e+00 1.018688299999999991e+01 1.255358299999999971e+01 1.064538300000000071e+01 1.205648300000000006e+01 1.133188299999999948e+01 8.563793000000000433e+00 2.834372999999999809e+00 3.667972999999999928e+00 1.202718300000000085e+01 6.551829999999999599e-01 3.873873000000000122e+00 1.117058300000000060e+01 5.881343000000000210e+00 6.603093000000000323e+00 1.012608299999999950e+01 6.826262999999999970e+00 8.244263000000000119e+00 4.152282999999999724e+00 6.474352999999999803e+00 1.859973000000000098e+00 5.455212999999999646e+00 3.750922999999999785e+00 1.396818299999999979e+01 3.445329999999999782e-01 1.417448300000000039e+01 8.697983000000000686e+00 7.233062999999999576e+00 4.426173000000000357e+00 6.753252999999999950e+00 4.455593000000000359e+00 8.715863000000000582e+00 8.791022999999999143e+00 1.084348300000000087e+01 5.257353000000000165e+00 4.957713000000000036e+00 3.208642999999999912e+00 3.207972999999999963e+00 7.909602999999999717e+00 1.212588299999999997e+01 9.662883000000000777e+00 4.882412999999999670e+00 4.514253000000000071e+00 1.270038300000000042e+01 1.133818300000000079e+01 1.282148300000000063e+01 1.175983000000000001e+00 1.088003000000000053e+00 5.426022999999999818e+00 2.502523000000000053e+00 1.071718300000000035e+01 4.203553000000000317e+00 1.644343000000000110e+00 7.118813000000000279e+00 7.812382999999999633e+00 8.814253000000000782e+00 1.348858300000000021e+01 1.221012999999999904e+00 8.950029999999999930e-01 1.032468300000000028e+01 5.880482999999999905e+00 2.888482999999999912e+00 5.543833000000000233e+00 3.186262999999999845e+00 4.184223000000000248e+00 1.856783000000000072e+00 5.569022999999999612e+00 1.018308299999999988e+01 7.800430000000000419e-01 3.141999999999999828e-03 7.847142999999999979e+00 6.532022999999999691e+00 2.973303000000000029e+00 9.373782999999999532e+00 1.035278300000000051e+01 7.479153000000000162e+00