-7.791160435436321131e+04
-7.790418024951672123e+04
-7.790933679441107961e+04
-7.791481163846595155e+04
-7.791440827354401699e+04
-7.790680514528164349e+04
-7.791314060268399771e+04
-7.790601598946591548e+04
-7.791150787935267726e+04
-7.790949340368677804e+04
-7.791338416663606768e+04
-7.791199402531232045e+04
-7.791377956279250793e+04
-7.790469364546495490e+04
-7.791410587079319521e+04
-7.791383143631427083e+04
-7.790925841925683198e+04
-7.791179114776152710e+04
-7.791111559980604216e+04
-7.790943841571231314e+04
-7.791334367061922967e+04
-7.790765871853283898e+04
-7.791574675932231185e+04
-7.790579441613919334e+04
-7.791184094768814975e+04
-7.791115399497306498e+04
-7.790945723459289002e+04
-7.790613561119879887e+04
-7.791037861612116103e+04
-7.790754862640443025e+04
-7.791130400976660894e+04
-7.790913771592531702e+04
-7.790794521654325945e+04
-7.791288260689166782e+04
-7.790953359655862732e+04
-7.791267689076667011e+04
