1.497742791466508683e+00 6.244737011979004659e-01 -1.056744055465488774e+00 -1.229736632207320435e+00 1.327938382908209425e+00 1.216425001599723971e-01 -1.262844730351952771e+00 -1.708445741392103923e+00 8.369039183700254236e-01 -6.305785290486899675e-02 7.446738123651619468e-02 -6.062456067188923964e-02 -5.658304327858741933e-01 1.216406489655432299e+00 4.132200209296339466e-01 8.861786003085401209e-01 4.030389657899961509e-01 -1.788148917539059690e+00 -6.207512577332892079e-01 9.447056548480697868e-01 -1.812705011641704278e+00 3.724520916137279425e-01 9.484430107122493459e-01 -8.083502727417711808e-01 -2.704903593389697616e-02 -2.473715120222884090e-01 5.769026323548765989e-01 1.481660025642612954e-01 8.048875107179154220e-01 -3.394648353276648600e-01 -2.267247291774639351e+00 -9.847284784062438900e-01 6.051138070137385139e-01 1.505027241545205285e+00 -1.808463205295582243e+00 1.337474605321694376e+00 3.552514100428969535e-01 -2.041363519088682799e-01 -1.750108928902772698e-01 1.791323715985047915e+00 1.936316462765345081e+00 -1.198791860441416945e+00 -1.359829320715677525e+00 1.911049715690177689e-02 2.298531963406561296e+00 8.268277642480393874e-01 7.609581526935649265e-01 1.747418012111736418e+00 -5.714534358644102890e-02 -9.110529970088631080e-01 -9.044951407436071511e-01 -7.833257236044171012e-01 -7.326487618858230633e-01 -1.822788879073811985e-01 1.054859950913156208e+00 -1.419203810927217146e+00 -7.702017835431091974e-01 -2.463420422314123726e-01 4.035264469896716610e-01 -2.189407651353025841e-01 -1.743299104506882857e+00 8.991307906644769865e-01 3.585043700314492765e-02 2.805999378048154580e-02 -7.531923920632900282e-01 2.273246704387102302e+00 -3.955555123101664461e-01 -8.153992097514259907e-01 -2.798208934825491268e-01 -5.046104045726089726e-01 -1.043046759351820008e+00 2.758356832531339009e-01 7.508958825297974427e-01 7.317915560209927728e-01 -1.373997642967429537e-02 8.120675739996348341e-02 -1.503263464630767210e+00 5.780853399068320853e-01 -5.219571248150728371e-01 -1.253331647868832555e+00 1.369003531774128701e+00 -1.230980532019572804e+00 -9.773278144550510971e-02 -7.493907586147653399e-01 -1.967298258419831525e+00 2.296067303712421015e-01 9.833508812185530745e-01 -9.696175896576508801e-01 -2.521935649778133559e+00 -5.652601620575615771e-01 -2.443085565730610753e+00 1.306337000802754611e+00 -1.888303164142025148e+00 -1.166166101289712431e+00 1.438059254629436290e-01 1.407854446414517291e+00 -1.406152375981051028e+00 -1.533200363874134553e-01 5.442151667222004940e-01 1.159781023171176928e+00 5.229516276000649722e-01 -4.023247132727499342e-01 -6.378166992666575164e-01 3.659811386425070728e-02 -6.907192080656269217e-01 -8.820000431054138001e-01 2.995628536280601772e-01 8.009645211901463835e-01 1.095341459313219079e-02 -3.255058008905413747e-01 5.777464684821630447e-01 3.574306772625436279e-01 -8.224738577948188523e-01 -8.030013492828836918e-01 1.412224807929330084e-01 2.332304434662987591e-01 -8.378182027297544909e-01 1.459089337565229405e+00 -1.182859247054552254e+00 1.282110522152632992e+00 2.748288391719473922e-01 9.278587571014761393e-01 8.033978134231260781e-02 -4.408352138264451936e-01 -8.390636452040310944e-01 -1.646071801984670332e-02 1.565015197021737414e-01 -1.436948537971947770e+00 -1.181460566819195979e+00 4.777881399562825676e-02 2.250162824076304413e-01 -4.707114350301906391e-01 1.371159144842736266e+00 8.871689893281340389e-01 1.407680125605772492e+00 7.100287086236620748e-01 1.392782638437206177e+00 7.591810060415830064e-01 -2.387547161752804903e-01 8.564972687405297824e-01 -8.006626736540604083e-01 1.408757932140076496e+00 -7.713978608326085284e-01 7.542095205579717465e-01 -6.099037725991582892e-01 2.239585819017099411e+00 -1.983820682920649947e+00 -3.787178705357182595e-01 -1.798718209288143743e-01 -4.564906622696126570e-01 -1.517065147541413195e+00 2.192410700093642417e-01 2.107919101023291442e-01 -4.052753115045416021e-01 8.112448209200134874e-02 -5.546353344756032033e-01 -1.123930071947357501e+00 -1.631104895025010881e+00 4.997854719813053515e-01 2.600001547296643345e+00 -2.451351663077429577e-01 -1.000617897256428579e+00 1.638152803593316206e-02 8.081960065393422044e-01 -5.279189993182780150e-01 6.130009237232573183e-01 -2.186898768680855643e+00 2.936765695640451979e-01 -1.175049777666922424e+00 4.990100272037623075e-01 -2.726901953856070149e-01 7.609915770374244826e-01 -7.808044996360529177e-01 6.612219674991820506e-01 -8.108812669029558107e-01 4.110469243580843757e-01 -2.023813167459012963e+00 1.741197484609125379e+00 -8.737627421163810526e-01 -3.367867740534977727e-01 3.374850857298263285e-01 -1.674266521581939671e-01 1.576718859579349374e-01 -2.096565108524518772e-01 -6.280351935913107697e-01 -5.792526208385445630e-01 -6.990932917541465841e-01 6.993318901472368454e-01 -3.390323757401889626e-01 -1.261740184342561522e+00 5.524637805660779222e-01 1.216731991342557384e+00 -1.795370632695434843e+00 -1.250483893771993538e+00 1.461828076879018612e+00 4.839217641648588253e-01 2.762583726477892410e-01 -8.855805616637903166e-02 -1.506164697677781383e+00 1.008273614662304057e-01 -1.288137188460858562e+00 2.398788025703129517e-02 -4.196554926742960927e-03 -1.243293546076778888e+00 -3.044566917897821301e-01 -5.969875776904547404e-01 -1.435417188802502686e+00 1.461150848250355461e+00 -9.599882933020340015e-02 -4.153545509505762734e-01 2.665905097415652292e-01 -6.471364347760667768e-02 1.136777361285642662e+00 2.362689734334748673e-02 -3.184280675230998781e-01 -9.079023669345885894e-01 -4.582528965220263872e-01 -8.099664683225520356e-01 6.160831624477884905e-01 1.224424218416341192e+00 2.318687871195256323e-01 1.463559457890946380e-01 1.241563193506200591e+00 -9.449720211575971529e-01 -5.843603748009682138e-03 -1.710956166726298189e-01 -1.496843933727022513e+00 1.044903610208390177e+00 2.306860795675701181e-01 -1.051343195718450474e+00 -6.032703258947121894e-01 -7.401358149103761663e-01 4.770836576318569083e-02 1.244215029525954641e+00 -8.789815677445533826e-01 -1.622160540608178492e-01 1.577776097286662571e+00 9.470088492503345723e-01 2.263445144105439427e-02 1.220088309686737205e+00 4.483243237336973497e-01 -6.147199634389910461e-01 4.111117161631045458e-01 -3.537380585970686386e-01 5.025015855854049196e-01 5.518919671757411827e-01 -9.571323116743987169e-01 -1.443725966465327602e-02 -5.618375092463373868e-03 -8.787085165662541497e-01 6.245307796927992428e-01 4.925323893637695294e-01 -1.185726027316357095e-01 -2.935654978982962793e-01 -6.223165454672685559e-01 8.721321483567067157e-01 -3.232128909017720764e-01 1.633735647997099361e-01 4.264072101339377308e-01 -2.060699244901130989e+00 -1.841479257939432124e+00 2.283294062151301068e-02 3.967947841363458905e-01 9.245302066737333124e-01 -5.490560401544217761e-01 8.285632590253654284e-01 -1.296564236878878784e+00 1.833705783999035888e-01 -2.646045894956295386e-01 1.187536598312198599e+00 6.222481541175251679e-02 9.839772020004148301e-01 1.359970217180562546e+00 5.086084703188933354e-01 -1.290960774185983428e+00 -1.033012771325164447e+00 -7.811464563847704268e-01 -1.315325063976941627e-02 -1.208518344504563968e+00 -3.663328655840451531e-01 -3.612765336890980672e-01 -1.628555903140209260e+00 1.324381004280197560e+00 2.783944453307558575e-01 1.030222609943898915e+00 -3.743377388280848539e-01 -1.253274055153258959e-01 -1.333614350716246566e+00 1.027842796661094793e+00 1.526684673704209461e+00 1.515536883696016746e-01 5.379118496909524039e-01 7.365897491372087602e-01 -4.772214687726935023e-01 -2.654324847819983790e-01 -1.164056253861158741e+00 2.038355328141317813e+00 1.928929168551696272e+00 -5.703499182963683856e-01 2.055319468201757815e-01 1.158204936803027829e-01 2.452329710800829510e+00 1.017514674408474651e+00 3.598434006685328201e-01 -1.623836900007906980e-01 -1.192295710657132579e+00 1.771129755866420075e+00 1.498906987074173081e-01 -3.684596822948659756e-01 7.052567407618590689e-01 8.047347871775106798e-02 -2.723250987065251039e-01 -6.420219959448715263e-01 8.038503276169178813e-02 -4.396051979724114878e-01 -5.352754402914412513e-01 -2.920398051562737018e-01 9.874631039546351019e-01 -8.726818502580288017e-01 1.626222883938808428e+00 6.342222967500623643e-01 -2.704435652575662985e-01 -4.714632256566944624e-02 -2.878165107544430334e-01 -5.491640264961220597e-01 -5.723322389975807889e-01 1.148442971513321975e+00 4.664372327815584640e-01 6.426868832773404705e-01 -3.275791386511868464e-02 -8.539518764004516704e-01 -1.423876534198791122e+00 -8.708671654967891085e-01 1.615203134878631652e-01 -8.707581507137392984e-01 -1.465266670531160387e-01 -1.561612084596154082e+00 1.189839792714463496e+00 3.744493247145084802e-01 -2.633977135719601237e-01 -4.459738210293544558e-01 -1.371838944574773400e+00 -1.058386476300682721e+00 -6.477205894625980287e-01 -6.062471493809167278e-01 -1.277887227750802435e+00 -7.816066838886834844e-01 -1.386853159836510911e-02 2.685450625263403612e-01 7.203696863931512429e-01 4.149318615559208778e-01 -5.773772580376831248e-02 1.990681929384016113e-01 7.803519854422612534e-01 8.921882973344982259e-01 -3.271718758767743762e-01 -3.437030421290636628e-01 -1.455129324148877634e+00 1.063434066444158971e-01 -1.639948976410263937e+00 1.290256806082232588e+00 -1.593101930277306677e-01 4.120409129224017475e-01 3.032045644467335488e-01 -6.495121342934731361e-03 2.663195154459649938e-01 -8.834470600841975996e-01 -5.663729355977493995e-02 3.639103719852354590e-01 6.130780568244718065e-01 1.313664131197456175e-01 4.483011838033330032e-01 -6.460293176633016277e-01 -1.230067276101193124e-01 2.366659517943920932e-01 9.173542571574121174e-02 4.747238989553683175e-01 -7.795703700166211059e-01 1.605340382336672422e-01 9.537970763778842731e-02 1.022241390850898268e+00 1.305750275012849682e-01 1.173101909750919186e-01 -1.115275737991091587e+00 2.341868939213584411e-01 8.050608030853105834e-01 -2.480482264302768525e-01 5.606326902053671013e-01 -1.113179774520756560e+00 8.163978263018162318e-01 -1.061017229272771534e+00 -1.445609556796985329e+00 -1.327938897128884410e-01 -8.516152576543275510e-01 -4.928990287048757302e-01 1.615012873228969387e-02 -1.750674571645012279e-01 -8.758777317516824867e-01 1.795401485935920957e-02 1.434577980661289331e-01 -1.614092418221143022e-01 -4.123993247327117362e-01 -1.205317835024837470e+00 -1.478810214663075051e+00 2.851173150105432264e+00 9.223180293309019007e-01 3.513093943501617855e-01 5.592545787970015780e-01 -9.061020803522423783e-01 2.924563239028319384e+00 -1.494960343395364877e+00 -2.287017019836587173e-01 1.378887367363753391e+00 -1.905650398605163859e-02 -4.742256191215227235e-01 1.794277913761562981e+00 -6.153591397377216055e-01 -1.755127722688462066e-01 5.010977631433011226e-01 -9.857198958671874178e-02 3.820042548681303052e-02 -3.964903654968860436e-01 -2.155831612394358388e+00 4.458658346876542278e-01 -8.730459184957610752e-01 -1.090703188826854519e-01 3.972354712546179861e-02 1.219989065096508174e+00 -1.703973049963013187e-01 4.217108327113248678e-01 -1.225099904382980082e-01 8.058352194215041148e-03 2.815671868940451406e-01 -6.129942388544855625e-01 1.682458056930918322e-01 5.254538254034629707e-01 -1.793159483793952957e-01 -9.182078634775192594e-02 -6.550749735530621010e-01 -2.051298262525109439e-01 9.796243239885438214e-01 -6.564232601622912999e-02 1.084475976455471363e-01 -4.704640948856295135e-01 3.369883485580049687e-01 1.753389656807762542e-01 -1.067701069603344433e+00 3.328792111459717429e-01 6.501250853377908978e-01 1.152654438839632922e+00 -7.504089155507965847e-01 -1.650310523006743635e+00 -1.029037331288569668e+00 -1.973135691519743995e+00 -2.118589180024629468e-02 -8.227906177304731283e-01 -2.056450753686236976e-01 9.910467078370600591e-01 1.106286132154880253e+00 1.228473192009427173e+00 2.506913206985599829e-01 -4.727534053296755245e-01 -3.980314848591515187e-01 -8.508809505307655952e-03 -1.899549170299097423e+00 -1.384248632118835198e+00 3.994671889830905265e-01 9.060326605611495054e-01 7.644090876419010749e-01 1.028102992322525111e+00 -8.950972436916340147e-01 -1.281237375446885041e-01 6.795518776717932585e-01 1.728887041655293166e-01 1.684592072731185830e-01 4.129598252682036841e-01 -1.746560806246906461e+00 1.838133224008747443e-02 5.148860763164032628e-01 8.407667440788469948e-01 2.119388793173885954e+00 3.442028646249334911e-01 1.100817909499447911e+00 -1.366484878909138279e-01 -1.269144962059152171e+00 -7.682359179034892183e-01 -1.165961955681831475e+00 5.038642703735274342e-01 7.852648497689493912e-01 -3.098806914671849988e-01 -7.260898771792176354e-02 -4.759024927419256978e-01 6.497666735274809646e-01 -3.684077460067148868e-01 5.418528369423381008e-01 -4.468968471405545539e-01 8.825811124678962782e-01 1.008472618063437354e+00 -1.373174889887808503e-02 4.685784476712726715e-02 1.426797307631446188e+00 1.080632691132290768e+00 3.452966120001549344e-01 -8.091827960142128351e-01 -3.941743155777522878e-01 -1.281684747433929350e-01 1.074386966816616162e-01 8.515139561813991342e-01 -4.833777186909592183e-02 -1.874462914680771752e-01 1.498742436458248561e-01 1.232715512576224026e-01 8.550641357199646464e-01 -4.823914434367633230e-01 -1.504203460024234329e-01 -5.363316495574049769e-01 1.437514180714187240e-01 -1.328884548949774036e+00 -3.168514669342757384e-01 4.783049317344196805e-01 -2.358252009911541713e-01 -1.669114030420811579e-01 4.610862524399719081e-02 2.909820532282856864e-01 -2.529374366059259360e-01 -3.736790221437130688e-01 2.922506356329266364e-01 2.972632587705189011e-01 -3.973470571410416263e-01 -9.318259696072744847e-01 9.700047978257475556e-01 -5.001032603583089875e-01 -7.306993513077955082e-01 4.059062602724761160e-01 1.205498840702354135e+00 5.049425911285060353e-01 7.467080693545253833e-01 -9.569446211281100734e-01 1.274274827510590569e-01 5.969752363942604223e-01 -5.174587223522437718e-01 -1.109566860059869819e+00 4.968148191431979721e-01 1.569401499377467979e-01 2.104566382223835297e-01 -6.337569270394015630e-01 -1.424972338456711729e-01 -1.032503692857148769e-01 -2.073672004084058385e-01 1.423487783368669879e+00 3.955956215227979800e-01 -7.313621817575655104e-01 3.314825877933147980e-01 1.296394544056207021e+00 -1.231692213433444927e+00 -1.324276103262545634e+00 7.005176830232408280e-02 -1.923972081246978494e-01 7.425361970201710404e-01 1.882412766312611951e-01 -6.315416643725214607e-01 3.992049364389612665e-01 -3.468315607143232504e-02 -4.689013782550239817e-01 -3.368623644926879712e-01 1.447727117535660302e+00 6.148140658224726662e-01 -7.422302357186869592e-01 -1.749486721886309437e-01 -1.209405889389205263e-01 1.259524921675681197e+00 5.717105462017919859e-02 1.037718918940597979e+00 5.615644580680381193e-01 -4.651588801840969567e-02 -8.726443121487710286e-01 -7.934805534896419710e-01 2.622814947532515539e+00 5.876770981531911353e-01 5.317792539237258254e-01 7.004981426375999076e-01 -2.481603265373752143e-01 2.564675615381756812e-01 -5.213045787787981000e-01 4.702332098026607565e-01 1.598278589810148365e+00 -3.896450598744374827e-01 6.480553471218688522e-01 -8.359685509626311184e-01 1.331688080068583302e+00 7.297033058607792499e-01 9.305131642246039503e-02 3.354847673049972112e-01 -2.359936082621391318e+00 -1.970971336699665954e+00 2.734990645070096149e-01 -4.883589743673908967e-01 4.613711306937907652e-01 2.918120053973535244e-01 -1.493744211499549723e-01 2.490653549249585708e-01 1.604482148030492716e+00 3.751188400330501826e-02 -7.126903148362366824e-01 -1.733844128960010944e-01 -4.029813730744226663e-01 -8.753773950351377842e-01 -1.522093197299248307e-03 5.782421772126348225e-01 1.915267353664585892e+00 1.274160670520793071e+00 -6.307595347262066054e-01 -2.447207044438838019e-01 3.461440476721648341e-01 8.343281870101362241e-01 9.198379430165186388e-02 4.612867985031295776e-02 1.057895395556283979e+00 -3.678313046303053335e-01 -1.053777516392779612e+00 -1.347782158747323766e+00 -2.394023256930772892e+00 7.869041852800946479e-01 1.041771492078407135e+00 5.486364360838149601e-01 4.879296001039636899e-01 -1.681594166197316054e-01 2.915440964258019241e-01 -2.111249708333733377e+00 -1.045410631793706746e-01 3.300453410073514449e-01 5.989832681292109884e-01 -1.431456661165476096e-01 1.824468323797588720e+00 -8.007218090316581272e-01 7.819512117407748653e-01 3.863010828264520358e-01 -5.012751692760945010e-01 -5.933499806371794749e-01 -5.231300621742077661e-01 -1.336045586066527235e+00 8.645607631414925498e-01 -5.282815248939860542e-01 -4.662027481538663642e-01 5.530587338867789526e-01 7.565029447674158636e-01 3.884669803085548656e-01 8.892736945499399859e-01 -1.120272934508441010e+00 1.071654912371599044e+00 -5.945126335828191388e-01 -4.070606856873196233e-01 -3.251813276447657608e-01 4.916458729204777334e-01 -3.717686923369675767e-01 -1.030468407426435640e+00 1.023148476121180872e+00 -1.102631565819337967e+00 2.313993036434667805e-01 -8.698968310835110407e-02 -1.179797062936336793e+00 -4.681089641952137503e-01 3.747388309544001372e-01 1.714929549880193971e+00 -1.232016172458545999e-01 -1.073517419655591665e+00 1.471746365253852273e+00 4.169064689470117213e-01 -3.301296731980126581e-04 -3.247416689678431778e-01 -4.079569723234319767e-01 -6.911922910864091163e-01 -1.289794007474945603e-01 -9.625491122623548446e-01 -9.949331876969208510e-01 -7.543807560426679659e-01 1.058703236236336886e+00 -1.409981777346013043e+00 5.503796441712623944e-01 -6.003994318675088815e-01 9.040174297367521428e-01 6.892624208940226760e-01 -1.632959174778206984e-02 9.811572158200130289e-01 3.535369983132361643e-02 -7.822592299249581105e-01 2.949312680104675399e-01 -6.146130055386402891e-01 9.055199825484104847e-01 -9.143769194505328712e-02 1.114661758505424372e+00 9.689074509058027695e-01 9.725177942633155270e-01 1.272417976654020455e+00 5.261536797418157052e-01 1.412831588325551113e+00 3.718643373824735421e-01 7.720005274634310632e-01 -3.477874969487081969e-01 -3.050747850408475625e-01 -3.748581301509452124e-01 1.255670323497655727e-01 1.159228235945806568e-01 1.218960109526306956e-01 5.863504088123019375e-01 -2.346049553299409396e-01 -8.035680204664729098e-01 1.298093529165624815e-01 1.265322245562962022e-01 4.242269144729414465e-02 -5.116896806020746480e-01 1.270334868700554454e+00 1.915667417349551649e-01 5.477890004118051576e-02 2.979967945630686454e+00 -6.326986608907387843e-01 3.361244578244027004e-01 1.949215174171106957e-01 -1.128225871464329511e-01 -4.541545577441631898e-01 6.899345073159381947e-01 6.156692148046040147e-01 5.241507902136128827e-01 -5.741350966833007607e-01 1.974223782467543264e+00 -1.949515479045168531e+00 1.973033875826140926e-01 3.391892130459916999e-01 -1.445495914027862705e+00 3.028451241950740891e-01 -1.747553252149199321e-01 9.046725468764006406e-01 -1.161259407611121425e-01 2.383515671662660707e-01 5.652622189402607411e-01 -1.064231622710716696e+00 2.289269306392050229e-01 1.751766776358209654e+00 -7.450049704797094829e-01 9.666315101993004921e-01 5.149796644792100642e-01 9.706532300966239646e-01 -3.634290614336569969e-01 5.324431128148451320e-01 2.665025780061807126e-01 -4.065305241716386520e-01 4.923431561554565961e-01 2.583223555120467418e-01 -7.664320317764197199e-01 -6.660499854145343068e-01 1.572198859848180086e-01 -4.896188150205609269e-01 4.081837436410025166e-01 9.995082090402894748e-01 -1.837505874785536619e-01 -7.777597990207796297e-01 -1.663632438027835558e-01 7.166796388310500698e-02 2.935135616101451905e-01 -1.085663826214174621e-01 -1.212326662821860690e-01 5.197202648798526781e-01 -1.211185092923886097e+00 -9.974492694585374020e-01 6.645942266842795598e-02 1.074763376350543087e+00 7.428421583216552326e-01 7.022110117052362543e-01 3.731452610833088102e-01 -1.435981803103393017e-01 1.323442551548754453e+00 -8.216649886734161967e-01 8.694674568200835285e-01 -3.031135473873005082e-01 6.117657656624760909e-01 -2.021103224503010276e-01 -3.575659173000063640e-01 -3.484595833706237711e-01 -5.249704579691855111e-01 -1.485796416750408744e+00 -5.452477218371251100e-01 1.400202328553365183e-01 -8.476516446932523541e-02 6.006251747437300059e-01 1.356385584856788062e+00 -2.344784570439491789e-01 2.918928408874263525e+00 -4.426498985876847758e-01 -3.156219653009167958e-01 -4.603935971910657621e-01 7.227968079780338062e-01 5.085724748716599075e-01 1.696264367827636788e+00 -2.034032789149258225e+00 -1.580449016354081859e+00