1.651999999999999957e+01 0.000000000000000000e+00 0.000000000000000000e+00 0.000000000000000000e+00 1.651999999999999957e+01 0.000000000000000000e+00 0.000000000000000000e+00 0.000000000000000000e+00 1.651999999999999957e+01
1.653200000000000003e+01 0.000000000000000000e+00 0.000000000000000000e+00 0.000000000000000000e+00 1.653200000000000003e+01 0.000000000000000000e+00 0.000000000000000000e+00 0.000000000000000000e+00 1.653200000000000003e+01
1.665200000000000102e+01 0.000000000000000000e+00 0.000000000000000000e+00 0.000000000000000000e+00 1.665200000000000102e+01 0.000000000000000000e+00 0.000000000000000000e+00 0.000000000000000000e+00 1.665200000000000102e+01
1.663500000000000156e+01 0.000000000000000000e+00 0.000000000000000000e+00 0.000000000000000000e+00 1.663500000000000156e+01 0.000000000000000000e+00 0.000000000000000000e+00 0.000000000000000000e+00 1.663500000000000156e+01
1.790399999999999991e+01 0.000000000000000000e+00 0.000000000000000000e+00 0.000000000000000000e+00 1.790399999999999991e+01 0.000000000000000000e+00 0.000000000000000000e+00 0.000000000000000000e+00 1.790399999999999991e+01
1.659900000000000020e+01 0.000000000000000000e+00 0.000000000000000000e+00 0.000000000000000000e+00 1.659900000000000020e+01 0.000000000000000000e+00 0.000000000000000000e+00 0.000000000000000000e+00 1.659900000000000020e+01
1.650300000000000011e+01 0.000000000000000000e+00 0.000000000000000000e+00 0.000000000000000000e+00 1.650300000000000011e+01 0.000000000000000000e+00 0.000000000000000000e+00 0.000000000000000000e+00 1.650300000000000011e+01
1.741400000000000148e+01 0.000000000000000000e+00 0.000000000000000000e+00 0.000000000000000000e+00 1.741400000000000148e+01 0.000000000000000000e+00 0.000000000000000000e+00 0.000000000000000000e+00 1.741400000000000148e+01
1.604700000000000060e+01 0.000000000000000000e+00 0.000000000000000000e+00 0.000000000000000000e+00 1.604700000000000060e+01 0.000000000000000000e+00 0.000000000000000000e+00 0.000000000000000000e+00 1.604700000000000060e+01
1.684900000000000020e+01 0.000000000000000000e+00 0.000000000000000000e+00 0.000000000000000000e+00 1.684900000000000020e+01 0.000000000000000000e+00 0.000000000000000000e+00 0.000000000000000000e+00 1.684900000000000020e+01
1.708099999999999952e+01 0.000000000000000000e+00 0.000000000000000000e+00 0.000000000000000000e+00 1.708099999999999952e+01 0.000000000000000000e+00 0.000000000000000000e+00 0.000000000000000000e+00 1.708099999999999952e+01
1.632000000000000028e+01 0.000000000000000000e+00 0.000000000000000000e+00 0.000000000000000000e+00 1.632000000000000028e+01 0.000000000000000000e+00 0.000000000000000000e+00 0.000000000000000000e+00 1.632000000000000028e+01
1.647200000000000131e+01 0.000000000000000000e+00 0.000000000000000000e+00 0.000000000000000000e+00 1.647200000000000131e+01 0.000000000000000000e+00 0.000000000000000000e+00 0.000000000000000000e+00 1.647200000000000131e+01
1.708200000000000074e+01 0.000000000000000000e+00 0.000000000000000000e+00 0.000000000000000000e+00 1.708200000000000074e+01 0.000000000000000000e+00 0.000000000000000000e+00 0.000000000000000000e+00 1.708200000000000074e+01
1.603699999999999903e+01 0.000000000000000000e+00 0.000000000000000000e+00 0.000000000000000000e+00 1.603699999999999903e+01 0.000000000000000000e+00 0.000000000000000000e+00 0.000000000000000000e+00 1.603699999999999903e+01
1.758299999999999841e+01 0.000000000000000000e+00 0.000000000000000000e+00 0.000000000000000000e+00 1.758299999999999841e+01 0.000000000000000000e+00 0.000000000000000000e+00 0.000000000000000000e+00 1.758299999999999841e+01
1.623799999999999955e+01 0.000000000000000000e+00 0.000000000000000000e+00 0.000000000000000000e+00 1.623799999999999955e+01 0.000000000000000000e+00 0.000000000000000000e+00 0.000000000000000000e+00 1.623799999999999955e+01
1.624500000000000099e+01 0.000000000000000000e+00 0.000000000000000000e+00 0.000000000000000000e+00 1.624500000000000099e+01 0.000000000000000000e+00 0.000000000000000000e+00 0.000000000000000000e+00 1.624500000000000099e+01
1.734900000000000020e+01 0.000000000000000000e+00 0.000000000000000000e+00 0.000000000000000000e+00 1.734900000000000020e+01 0.000000000000000000e+00 0.000000000000000000e+00 0.000000000000000000e+00 1.734900000000000020e+01
1.753900000000000148e+01 0.000000000000000000e+00 0.000000000000000000e+00 0.000000000000000000e+00 1.753900000000000148e+01 0.000000000000000000e+00 0.000000000000000000e+00 0.000000000000000000e+00 1.753900000000000148e+01
1.609900000000000020e+01 0.000000000000000000e+00 0.000000000000000000e+00 0.000000000000000000e+00 1.609900000000000020e+01 0.000000000000000000e+00 0.000000000000000000e+00 0.000000000000000000e+00 1.609900000000000020e+01
1.694200000000000017e+01 0.000000000000000000e+00 0.000000000000000000e+00 0.000000000000000000e+00 1.694200000000000017e+01 0.000000000000000000e+00 0.000000000000000000e+00 0.000000000000000000e+00 1.694200000000000017e+01
1.572199999999999953e+01 0.000000000000000000e+00 0.000000000000000000e+00 0.000000000000000000e+00 1.572199999999999953e+01 0.000000000000000000e+00 0.000000000000000000e+00 0.000000000000000000e+00 1.572199999999999953e+01
1.610900000000000176e+01 0.000000000000000000e+00 0.000000000000000000e+00 0.000000000000000000e+00 1.610900000000000176e+01 0.000000000000000000e+00 0.000000000000000000e+00 0.000000000000000000e+00 1.610900000000000176e+01
1.632300000000000040e+01 0.000000000000000000e+00 0.000000000000000000e+00 0.000000000000000000e+00 1.632300000000000040e+01 0.000000000000000000e+00 0.000000000000000000e+00 0.000000000000000000e+00 1.632300000000000040e+01
1.673999999999999844e+01 0.000000000000000000e+00 0.000000000000000000e+00 0.000000000000000000e+00 1.673999999999999844e+01 0.000000000000000000e+00 0.000000000000000000e+00 0.000000000000000000e+00 1.673999999999999844e+01
1.632900000000000063e+01 0.000000000000000000e+00 0.000000000000000000e+00 0.000000000000000000e+00 1.632900000000000063e+01 0.000000000000000000e+00 0.000000000000000000e+00 0.000000000000000000e+00 1.632900000000000063e+01
1.693499999999999872e+01 0.000000000000000000e+00 0.000000000000000000e+00 0.000000000000000000e+00 1.693499999999999872e+01 0.000000000000000000e+00 0.000000000000000000e+00 0.000000000000000000e+00 1.693499999999999872e+01
1.671199999999999974e+01 0.000000000000000000e+00 0.000000000000000000e+00 0.000000000000000000e+00 1.671199999999999974e+01 0.000000000000000000e+00 0.000000000000000000e+00 0.000000000000000000e+00 1.671199999999999974e+01
1.657199999999999918e+01 0.000000000000000000e+00 0.000000000000000000e+00 0.000000000000000000e+00 1.657199999999999918e+01 0.000000000000000000e+00 0.000000000000000000e+00 0.000000000000000000e+00 1.657199999999999918e+01
1.769699999999999918e+01 0.000000000000000000e+00 0.000000000000000000e+00 0.000000000000000000e+00 1.769699999999999918e+01 0.000000000000000000e+00 0.000000000000000000e+00 0.000000000000000000e+00 1.769699999999999918e+01
1.638200000000000145e+01 0.000000000000000000e+00 0.000000000000000000e+00 0.000000000000000000e+00 1.638200000000000145e+01 0.000000000000000000e+00 0.000000000000000000e+00 0.000000000000000000e+00 1.638200000000000145e+01
1.704500000000000171e+01 0.000000000000000000e+00 0.000000000000000000e+00 0.000000000000000000e+00 1.704500000000000171e+01 0.000000000000000000e+00 0.000000000000000000e+00 0.000000000000000000e+00 1.704500000000000171e+01
1.588299999999999912e+01 0.000000000000000000e+00 0.000000000000000000e+00 0.000000000000000000e+00 1.588299999999999912e+01 0.000000000000000000e+00 0.000000000000000000e+00 0.000000000000000000e+00 1.588299999999999912e+01
1.660399999999999920e+01 0.000000000000000000e+00 0.000000000000000000e+00 0.000000000000000000e+00 1.660399999999999920e+01 0.000000000000000000e+00 0.000000000000000000e+00 0.000000000000000000e+00 1.660399999999999920e+01
1.582600000000000051e+01 0.000000000000000000e+00 0.000000000000000000e+00 0.000000000000000000e+00 1.582600000000000051e+01 0.000000000000000000e+00 0.000000000000000000e+00 0.000000000000000000e+00 1.582600000000000051e+01
1.736899999999999977e+01 0.000000000000000000e+00 0.000000000000000000e+00 0.000000000000000000e+00 1.736899999999999977e+01 0.000000000000000000e+00 0.000000000000000000e+00 0.000000000000000000e+00 1.736899999999999977e+01
1.672200000000000131e+01 0.000000000000000000e+00 0.000000000000000000e+00 0.000000000000000000e+00 1.672200000000000131e+01 0.000000000000000000e+00 0.000000000000000000e+00 0.000000000000000000e+00 1.672200000000000131e+01
1.685099999999999909e+01 0.000000000000000000e+00 0.000000000000000000e+00 0.000000000000000000e+00 1.685099999999999909e+01 0.000000000000000000e+00 0.000000000000000000e+00 0.000000000000000000e+00 1.685099999999999909e+01
1.746000000000000085e+01 0.000000000000000000e+00 0.000000000000000000e+00 0.000000000000000000e+00 1.746000000000000085e+01 0.000000000000000000e+00 0.000000000000000000e+00 0.000000000000000000e+00 1.746000000000000085e+01
1.678500000000000014e+01 0.000000000000000000e+00 0.000000000000000000e+00 0.000000000000000000e+00 1.678500000000000014e+01 0.000000000000000000e+00 0.000000000000000000e+00 0.000000000000000000e+00 1.678500000000000014e+01
1.671000000000000085e+01 0.000000000000000000e+00 0.000000000000000000e+00 0.000000000000000000e+00 1.671000000000000085e+01 0.000000000000000000e+00 0.000000000000000000e+00 0.000000000000000000e+00 1.671000000000000085e+01
1.673199999999999932e+01 0.000000000000000000e+00 0.000000000000000000e+00 0.000000000000000000e+00 1.673199999999999932e+01 0.000000000000000000e+00 0.000000000000000000e+00 0.000000000000000000e+00 1.673199999999999932e+01
1.697800000000000153e+01 0.000000000000000000e+00 0.000000000000000000e+00 0.000000000000000000e+00 1.697800000000000153e+01 0.000000000000000000e+00 0.000000000000000000e+00 0.000000000000000000e+00 1.697800000000000153e+01
1.700799999999999912e+01 0.000000000000000000e+00 0.000000000000000000e+00 0.000000000000000000e+00 1.700799999999999912e+01 0.000000000000000000e+00 0.000000000000000000e+00 0.000000000000000000e+00 1.700799999999999912e+01
1.648400000000000176e+01 0.000000000000000000e+00 0.000000000000000000e+00 0.000000000000000000e+00 1.648400000000000176e+01 0.000000000000000000e+00 0.000000000000000000e+00 0.000000000000000000e+00 1.648400000000000176e+01
1.625700000000000145e+01 0.000000000000000000e+00 0.000000000000000000e+00 0.000000000000000000e+00 1.625700000000000145e+01 0.000000000000000000e+00 0.000000000000000000e+00 0.000000000000000000e+00 1.625700000000000145e+01
1.672899999999999920e+01 0.000000000000000000e+00 0.000000000000000000e+00 0.000000000000000000e+00 1.672899999999999920e+01 0.000000000000000000e+00 0.000000000000000000e+00 0.000000000000000000e+00 1.672899999999999920e+01
1.673799999999999955e+01 0.000000000000000000e+00 0.000000000000000000e+00 0.000000000000000000e+00 1.673799999999999955e+01 0.000000000000000000e+00 0.000000000000000000e+00 0.000000000000000000e+00 1.673799999999999955e+01
1.632400000000000162e+01 0.000000000000000000e+00 0.000000000000000000e+00 0.000000000000000000e+00 1.632400000000000162e+01 0.000000000000000000e+00 0.000000000000000000e+00 0.000000000000000000e+00 1.632400000000000162e+01
1.658699999999999974e+01 0.000000000000000000e+00 0.000000000000000000e+00 0.000000000000000000e+00 1.658699999999999974e+01 0.000000000000000000e+00 0.000000000000000000e+00 0.000000000000000000e+00 1.658699999999999974e+01
1.692099999999999937e+01 0.000000000000000000e+00 0.000000000000000000e+00 0.000000000000000000e+00 1.692099999999999937e+01 0.000000000000000000e+00 0.000000000000000000e+00 0.000000000000000000e+00 1.692099999999999937e+01
1.705600000000000094e+01 0.000000000000000000e+00 0.000000000000000000e+00 0.000000000000000000e+00 1.705600000000000094e+01 0.000000000000000000e+00 0.000000000000000000e+00 0.000000000000000000e+00 1.705600000000000094e+01
1.648000000000000043e+01 0.000000000000000000e+00 0.000000000000000000e+00 0.000000000000000000e+00 1.648000000000000043e+01 0.000000000000000000e+00 0.000000000000000000e+00 0.000000000000000000e+00 1.648000000000000043e+01
1.764399999999999835e+01 0.000000000000000000e+00 0.000000000000000000e+00 0.000000000000000000e+00 1.764399999999999835e+01 0.000000000000000000e+00 0.000000000000000000e+00 0.000000000000000000e+00 1.764399999999999835e+01
1.659900000000000020e+01 0.000000000000000000e+00 0.000000000000000000e+00 0.000000000000000000e+00 1.659900000000000020e+01 0.000000000000000000e+00 0.000000000000000000e+00 0.000000000000000000e+00 1.659900000000000020e+01
1.651899999999999835e+01 0.000000000000000000e+00 0.000000000000000000e+00 0.000000000000000000e+00 1.651899999999999835e+01 0.000000000000000000e+00 0.000000000000000000e+00 0.000000000000000000e+00 1.651899999999999835e+01
1.630699999999999861e+01 0.000000000000000000e+00 0.000000000000000000e+00 0.000000000000000000e+00 1.630699999999999861e+01 0.000000000000000000e+00 0.000000000000000000e+00 0.000000000000000000e+00 1.630699999999999861e+01
1.675700000000000145e+01 0.000000000000000000e+00 0.000000000000000000e+00 0.000000000000000000e+00 1.675700000000000145e+01 0.000000000000000000e+00 0.000000000000000000e+00 0.000000000000000000e+00 1.675700000000000145e+01
1.671399999999999864e+01 0.000000000000000000e+00 0.000000000000000000e+00 0.000000000000000000e+00 1.671399999999999864e+01 0.000000000000000000e+00 0.000000000000000000e+00 0.000000000000000000e+00 1.671399999999999864e+01
1.726699999999999946e+01 0.000000000000000000e+00 0.000000000000000000e+00 0.000000000000000000e+00 1.726699999999999946e+01 0.000000000000000000e+00 0.000000000000000000e+00 0.000000000000000000e+00 1.726699999999999946e+01
1.592099999999999937e+01 0.000000000000000000e+00 0.000000000000000000e+00 0.000000000000000000e+00 1.592099999999999937e+01 0.000000000000000000e+00 0.000000000000000000e+00 0.000000000000000000e+00 1.592099999999999937e+01
1.669300000000000139e+01 0.000000000000000000e+00 0.000000000000000000e+00 0.000000000000000000e+00 1.669300000000000139e+01 0.000000000000000000e+00 0.000000000000000000e+00 0.000000000000000000e+00 1.669300000000000139e+01
1.769699999999999918e+01 0.000000000000000000e+00 0.000000000000000000e+00 0.000000000000000000e+00 1.769699999999999918e+01 0.000000000000000000e+00 0.000000000000000000e+00 0.000000000000000000e+00 1.769699999999999918e+01
1.614199999999999946e+01 0.000000000000000000e+00 0.000000000000000000e+00 0.000000000000000000e+00 1.614199999999999946e+01 0.000000000000000000e+00 0.000000000000000000e+00 0.000000000000000000e+00 1.614199999999999946e+01
1.677700000000000102e+01 0.000000000000000000e+00 0.000000000000000000e+00 0.000000000000000000e+00 1.677700000000000102e+01 0.000000000000000000e+00 0.000000000000000000e+00 0.000000000000000000e+00 1.677700000000000102e+01
1.664199999999999946e+01 0.000000000000000000e+00 0.000000000000000000e+00 0.000000000000000000e+00 1.664199999999999946e+01 0.000000000000000000e+00 0.000000000000000000e+00 0.000000000000000000e+00 1.664199999999999946e+01
1.616499999999999915e+01 0.000000000000000000e+00 0.000000000000000000e+00 0.000000000000000000e+00 1.616499999999999915e+01 0.000000000000000000e+00 0.000000000000000000e+00 0.000000000000000000e+00 1.616499999999999915e+01
1.657900000000000063e+01 0.000000000000000000e+00 0.000000000000000000e+00 0.000000000000000000e+00 1.657900000000000063e+01 0.000000000000000000e+00 0.000000000000000000e+00 0.000000000000000000e+00 1.657900000000000063e+01
1.681099999999999994e+01 0.000000000000000000e+00 0.000000000000000000e+00 0.000000000000000000e+00 1.681099999999999994e+01 0.000000000000000000e+00 0.000000000000000000e+00 0.000000000000000000e+00 1.681099999999999994e+01
1.694200000000000017e+01 0.000000000000000000e+00 0.000000000000000000e+00 0.000000000000000000e+00 1.694200000000000017e+01 0.000000000000000000e+00 0.000000000000000000e+00 0.000000000000000000e+00 1.694200000000000017e+01
1.718700000000000117e+01 0.000000000000000000e+00 0.000000000000000000e+00 0.000000000000000000e+00 1.718700000000000117e+01 0.000000000000000000e+00 0.000000000000000000e+00 0.000000000000000000e+00 1.718700000000000117e+01
1.731599999999999895e+01 0.000000000000000000e+00 0.000000000000000000e+00 0.000000000000000000e+00 1.731599999999999895e+01 0.000000000000000000e+00 0.000000000000000000e+00 0.000000000000000000e+00 1.731599999999999895e+01
1.731899999999999906e+01 0.000000000000000000e+00 0.000000000000000000e+00 0.000000000000000000e+00 1.731899999999999906e+01 0.000000000000000000e+00 0.000000000000000000e+00 0.000000000000000000e+00 1.731899999999999906e+01
1.598099999999999987e+01 0.000000000000000000e+00 0.000000000000000000e+00 0.000000000000000000e+00 1.598099999999999987e+01 0.000000000000000000e+00 0.000000000000000000e+00 0.000000000000000000e+00 1.598099999999999987e+01
1.723300000000000054e+01 0.000000000000000000e+00 0.000000000000000000e+00 0.000000000000000000e+00 1.723300000000000054e+01 0.000000000000000000e+00 0.000000000000000000e+00 0.000000000000000000e+00 1.723300000000000054e+01
1.691900000000000048e+01 0.000000000000000000e+00 0.000000000000000000e+00 0.000000000000000000e+00 1.691900000000000048e+01 0.000000000000000000e+00 0.000000000000000000e+00 0.000000000000000000e+00 1.691900000000000048e+01
1.663400000000000034e+01 0.000000000000000000e+00 0.000000000000000000e+00 0.000000000000000000e+00 1.663400000000000034e+01 0.000000000000000000e+00 0.000000000000000000e+00 0.000000000000000000e+00 1.663400000000000034e+01
1.706599999999999895e+01 0.000000000000000000e+00 0.000000000000000000e+00 0.000000000000000000e+00 1.706599999999999895e+01 0.000000000000000000e+00 0.000000000000000000e+00 0.000000000000000000e+00 1.706599999999999895e+01
1.689099999999999824e+01 0.000000000000000000e+00 0.000000000000000000e+00 0.000000000000000000e+00 1.689099999999999824e+01 0.000000000000000000e+00 0.000000000000000000e+00 0.000000000000000000e+00 1.689099999999999824e+01
1.681299999999999883e+01 0.000000000000000000e+00 0.000000000000000000e+00 0.000000000000000000e+00 1.681299999999999883e+01 0.000000000000000000e+00 0.000000000000000000e+00 0.000000000000000000e+00 1.681299999999999883e+01
1.652400000000000091e+01 0.000000000000000000e+00 0.000000000000000000e+00 0.000000000000000000e+00 1.652400000000000091e+01 0.000000000000000000e+00 0.000000000000000000e+00 0.000000000000000000e+00 1.652400000000000091e+01
1.697400000000000020e+01 0.000000000000000000e+00 0.000000000000000000e+00 0.000000000000000000e+00 1.697400000000000020e+01 0.000000000000000000e+00 0.000000000000000000e+00 0.000000000000000000e+00 1.697400000000000020e+01
1.643400000000000105e+01 0.000000000000000000e+00 0.000000000000000000e+00 0.000000000000000000e+00 1.643400000000000105e+01 0.000000000000000000e+00 0.000000000000000000e+00 0.000000000000000000e+00 1.643400000000000105e+01
1.648900000000000077e+01 0.000000000000000000e+00 0.000000000000000000e+00 0.000000000000000000e+00 1.648900000000000077e+01 0.000000000000000000e+00 0.000000000000000000e+00 0.000000000000000000e+00 1.648900000000000077e+01
1.758800000000000097e+01 0.000000000000000000e+00 0.000000000000000000e+00 0.000000000000000000e+00 1.758800000000000097e+01 0.000000000000000000e+00 0.000000000000000000e+00 0.000000000000000000e+00 1.758800000000000097e+01
1.680399999999999849e+01 0.000000000000000000e+00 0.000000000000000000e+00 0.000000000000000000e+00 1.680399999999999849e+01 0.000000000000000000e+00 0.000000000000000000e+00 0.000000000000000000e+00 1.680399999999999849e+01
1.694800000000000040e+01 0.000000000000000000e+00 0.000000000000000000e+00 0.000000000000000000e+00 1.694800000000000040e+01 0.000000000000000000e+00 0.000000000000000000e+00 0.000000000000000000e+00 1.694800000000000040e+01
1.623199999999999932e+01 0.000000000000000000e+00 0.000000000000000000e+00 0.000000000000000000e+00 1.623199999999999932e+01 0.000000000000000000e+00 0.000000000000000000e+00 0.000000000000000000e+00 1.623199999999999932e+01
1.647700000000000031e+01 0.000000000000000000e+00 0.000000000000000000e+00 0.000000000000000000e+00 1.647700000000000031e+01 0.000000000000000000e+00 0.000000000000000000e+00 0.000000000000000000e+00 1.647700000000000031e+01
1.617500000000000071e+01 0.000000000000000000e+00 0.000000000000000000e+00 0.000000000000000000e+00 1.617500000000000071e+01 0.000000000000000000e+00 0.000000000000000000e+00 0.000000000000000000e+00 1.617500000000000071e+01
1.645499999999999829e+01 0.000000000000000000e+00 0.000000000000000000e+00 0.000000000000000000e+00 1.645499999999999829e+01 0.000000000000000000e+00 0.000000000000000000e+00 0.000000000000000000e+00 1.645499999999999829e+01
1.723400000000000176e+01 0.000000000000000000e+00 0.000000000000000000e+00 0.000000000000000000e+00 1.723400000000000176e+01 0.000000000000000000e+00 0.000000000000000000e+00 0.000000000000000000e+00 1.723400000000000176e+01
1.621000000000000085e+01 0.000000000000000000e+00 0.000000000000000000e+00 0.000000000000000000e+00 1.621000000000000085e+01 0.000000000000000000e+00 0.000000000000000000e+00 0.000000000000000000e+00 1.621000000000000085e+01
1.631099999999999994e+01 0.000000000000000000e+00 0.000000000000000000e+00 0.000000000000000000e+00 1.631099999999999994e+01 0.000000000000000000e+00 0.000000000000000000e+00 0.000000000000000000e+00 1.631099999999999994e+01
1.712699999999999889e+01 0.000000000000000000e+00 0.000000000000000000e+00 0.000000000000000000e+00 1.712699999999999889e+01 0.000000000000000000e+00 0.000000000000000000e+00 0.000000000000000000e+00 1.712699999999999889e+01
1.719500000000000028e+01 0.000000000000000000e+00 0.000000000000000000e+00 0.000000000000000000e+00 1.719500000000000028e+01 0.000000000000000000e+00 0.000000000000000000e+00 0.000000000000000000e+00 1.719500000000000028e+01
1.651500000000000057e+01 0.000000000000000000e+00 0.000000000000000000e+00 0.000000000000000000e+00 1.651500000000000057e+01 0.000000000000000000e+00 0.000000000000000000e+00 0.000000000000000000e+00 1.651500000000000057e+01
1.679100000000000037e+01 0.000000000000000000e+00 0.000000000000000000e+00 0.000000000000000000e+00 1.679100000000000037e+01 0.000000000000000000e+00 0.000000000000000000e+00 0.000000000000000000e+00 1.679100000000000037e+01
1.600499999999999901e+01 0.000000000000000000e+00 0.000000000000000000e+00 0.000000000000000000e+00 1.600499999999999901e+01 0.000000000000000000e+00 0.000000000000000000e+00 0.000000000000000000e+00 1.600499999999999901e+01
1.617999999999999972e+01 0.000000000000000000e+00 0.000000000000000000e+00 0.000000000000000000e+00 1.617999999999999972e+01 0.000000000000000000e+00 0.000000000000000000e+00 0.000000000000000000e+00 1.617999999999999972e+01
1.696699999999999875e+01 0.000000000000000000e+00 0.000000000000000000e+00 0.000000000000000000e+00 1.696699999999999875e+01 0.000000000000000000e+00 0.000000000000000000e+00 0.000000000000000000e+00 1.696699999999999875e+01
1.688599999999999923e+01 0.000000000000000000e+00 0.000000000000000000e+00 0.000000000000000000e+00 1.688599999999999923e+01 0.000000000000000000e+00 0.000000000000000000e+00 0.000000000000000000e+00 1.688599999999999923e+01
1.630399999999999849e+01 0.000000000000000000e+00 0.000000000000000000e+00 0.000000000000000000e+00 1.630399999999999849e+01 0.000000000000000000e+00 0.000000000000000000e+00 0.000000000000000000e+00 1.630399999999999849e+01
1.682300000000000040e+01 0.000000000000000000e+00 0.000000000000000000e+00 0.000000000000000000e+00 1.682300000000000040e+01 0.000000000000000000e+00 0.000000000000000000e+00 0.000000000000000000e+00 1.682300000000000040e+01
1.696499999999999986e+01 0.000000000000000000e+00 0.000000000000000000e+00 0.000000000000000000e+00 1.696499999999999986e+01 0.000000000000000000e+00 0.000000000000000000e+00 0.000000000000000000e+00 1.696499999999999986e+01
1.719600000000000151e+01 0.000000000000000000e+00 0.000000000000000000e+00 0.000000000000000000e+00 1.719600000000000151e+01 0.000000000000000000e+00 0.000000000000000000e+00 0.000000000000000000e+00 1.719600000000000151e+01
1.714999999999999858e+01 0.000000000000000000e+00 0.000000000000000000e+00 0.000000000000000000e+00 1.714999999999999858e+01 0.000000000000000000e+00 0.000000000000000000e+00 0.000000000000000000e+00 1.714999999999999858e+01
1.685300000000000153e+01 0.000000000000000000e+00 0.000000000000000000e+00 0.000000000000000000e+00 1.685300000000000153e+01 0.000000000000000000e+00 0.000000000000000000e+00 0.000000000000000000e+00 1.685300000000000153e+01
1.688500000000000156e+01 0.000000000000000000e+00 0.000000000000000000e+00 0.000000000000000000e+00 1.688500000000000156e+01 0.000000000000000000e+00 0.000000000000000000e+00 0.000000000000000000e+00 1.688500000000000156e+01
1.697200000000000131e+01 0.000000000000000000e+00 0.000000000000000000e+00 0.000000000000000000e+00 1.697200000000000131e+01 0.000000000000000000e+00 0.000000000000000000e+00 0.000000000000000000e+00 1.697200000000000131e+01
1.708599999999999852e+01 0.000000000000000000e+00 0.000000000000000000e+00 0.000000000000000000e+00 1.708599999999999852e+01 0.000000000000000000e+00 0.000000000000000000e+00 0.000000000000000000e+00 1.708599999999999852e+01
1.723000000000000043e+01 0.000000000000000000e+00 0.000000000000000000e+00 0.000000000000000000e+00 1.723000000000000043e+01 0.000000000000000000e+00 0.000000000000000000e+00 0.000000000000000000e+00 1.723000000000000043e+01
1.726699999999999946e+01 0.000000000000000000e+00 0.000000000000000000e+00 0.000000000000000000e+00 1.726699999999999946e+01 0.000000000000000000e+00 0.000000000000000000e+00 0.000000000000000000e+00 1.726699999999999946e+01
1.769500000000000028e+01 0.000000000000000000e+00 0.000000000000000000e+00 0.000000000000000000e+00 1.769500000000000028e+01 0.000000000000000000e+00 0.000000000000000000e+00 0.000000000000000000e+00 1.769500000000000028e+01
1.666799999999999926e+01 0.000000000000000000e+00 0.000000000000000000e+00 0.000000000000000000e+00 1.666799999999999926e+01 0.000000000000000000e+00 0.000000000000000000e+00 0.000000000000000000e+00 1.666799999999999926e+01
1.762399999999999878e+01 0.000000000000000000e+00 0.000000000000000000e+00 0.000000000000000000e+00 1.762399999999999878e+01 0.000000000000000000e+00 0.000000000000000000e+00 0.000000000000000000e+00 1.762399999999999878e+01
1.670499999999999829e+01 0.000000000000000000e+00 0.000000000000000000e+00 0.000000000000000000e+00 1.670499999999999829e+01 0.000000000000000000e+00 0.000000000000000000e+00 0.000000000000000000e+00 1.670499999999999829e+01
1.629799999999999827e+01 0.000000000000000000e+00 0.000000000000000000e+00 0.000000000000000000e+00 1.629799999999999827e+01 0.000000000000000000e+00 0.000000000000000000e+00 0.000000000000000000e+00 1.629799999999999827e+01
1.677199999999999847e+01 0.000000000000000000e+00 0.000000000000000000e+00 0.000000000000000000e+00 1.677199999999999847e+01 0.000000000000000000e+00 0.000000000000000000e+00 0.000000000000000000e+00 1.677199999999999847e+01
1.636899999999999977e+01 0.000000000000000000e+00 0.000000000000000000e+00 0.000000000000000000e+00 1.636899999999999977e+01 0.000000000000000000e+00 0.000000000000000000e+00 0.000000000000000000e+00 1.636899999999999977e+01
1.682400000000000162e+01 0.000000000000000000e+00 0.000000000000000000e+00 0.000000000000000000e+00 1.682400000000000162e+01 0.000000000000000000e+00 0.000000000000000000e+00 0.000000000000000000e+00 1.682400000000000162e+01
1.670700000000000074e+01 0.000000000000000000e+00 0.000000000000000000e+00 0.000000000000000000e+00 1.670700000000000074e+01 0.000000000000000000e+00 0.000000000000000000e+00 0.000000000000000000e+00 1.670700000000000074e+01
1.623300000000000054e+01 0.000000000000000000e+00 0.000000000000000000e+00 0.000000000000000000e+00 1.623300000000000054e+01 0.000000000000000000e+00 0.000000000000000000e+00 0.000000000000000000e+00 1.623300000000000054e+01
1.780000000000000071e+01 0.000000000000000000e+00 0.000000000000000000e+00 0.000000000000000000e+00 1.780000000000000071e+01 0.000000000000000000e+00 0.000000000000000000e+00 0.000000000000000000e+00 1.780000000000000071e+01
1.667899999999999849e+01 0.000000000000000000e+00 0.000000000000000000e+00 0.000000000000000000e+00 1.667899999999999849e+01 0.000000000000000000e+00 0.000000000000000000e+00 0.000000000000000000e+00 1.667899999999999849e+01
1.745200000000000173e+01 0.000000000000000000e+00 0.000000000000000000e+00 0.000000000000000000e+00 1.745200000000000173e+01 0.000000000000000000e+00 0.000000000000000000e+00 0.000000000000000000e+00 1.745200000000000173e+01
1.791499999999999915e+01 0.000000000000000000e+00 0.000000000000000000e+00 0.000000000000000000e+00 1.791499999999999915e+01 0.000000000000000000e+00 0.000000000000000000e+00 0.000000000000000000e+00 1.791499999999999915e+01
1.667999999999999972e+01 0.000000000000000000e+00 0.000000000000000000e+00 0.000000000000000000e+00 1.667999999999999972e+01 0.000000000000000000e+00 0.000000000000000000e+00 0.000000000000000000e+00 1.667999999999999972e+01
1.610699999999999932e+01 0.000000000000000000e+00 0.000000000000000000e+00 0.000000000000000000e+00 1.610699999999999932e+01 0.000000000000000000e+00 0.000000000000000000e+00 0.000000000000000000e+00 1.610699999999999932e+01
1.615099999999999980e+01 0.000000000000000000e+00 0.000000000000000000e+00 0.000000000000000000e+00 1.615099999999999980e+01 0.000000000000000000e+00 0.000000000000000000e+00 0.000000000000000000e+00 1.615099999999999980e+01
1.639099999999999824e+01 0.000000000000000000e+00 0.000000000000000000e+00 0.000000000000000000e+00 1.639099999999999824e+01 0.000000000000000000e+00 0.000000000000000000e+00 0.000000000000000000e+00 1.639099999999999824e+01
1.673999999999999844e+01 0.000000000000000000e+00 0.000000000000000000e+00 0.000000000000000000e+00 1.673999999999999844e+01 0.000000000000000000e+00 0.000000000000000000e+00 0.000000000000000000e+00 1.673999999999999844e+01