1.112005399999999966e+01 1.091734999999999900e+00 1.374905399999999922e+01 6.100043999999999578e+00 1.449743999999999922e+00 9.171514000000000166e+00 4.985783999999999772e+00 1.606185400000000030e+01 8.476573999999999387e+00 8.076193999999999207e+00 6.886453999999999631e+00 1.497765399999999936e+01 1.196415400000000062e+01 1.494315399999999983e+01 5.752574000000000076e+00 6.349033999999999622e+00 8.744384000000000157e+00 1.017181399999999947e+01 1.181715400000000038e+01 2.113500000000000101e-02 1.189705400000000068e+01 1.128025399999999934e+01 8.487453999999999610e+00 7.775654000000000288e+00 7.860503999999999714e+00 1.106355399999999989e+01 1.000522400000000012e+01 3.975913999999999948e+00 1.433025400000000005e+01 1.513345400000000041e+01 6.308493999999999602e+00 8.902274000000000242e+00 6.302533999999999637e+00 6.883064000000000071e+00 1.127465399999999995e+01 1.577465399999999995e+01 1.444585400000000064e+01 1.356475400000000064e+01 2.778153999999999790e+00 4.579973999999999990e+00 3.993583999999999801e+00 5.217944000000000138e+00 9.968733999999999540e+00 1.311165399999999970e+01 1.372045400000000015e+01 1.356144000000000016e+00 1.493315400000000004e+01 8.902523999999999660e+00 7.472824000000000133e+00 3.649833999999999801e+00 8.422183999999999671e+00 1.401445400000000063e+01 2.741623999999999839e+00 3.146504000000000190e+00 4.913713999999999693e+00 1.352235399999999998e+01 1.961934000000000067e+00 1.513835399999999964e+01 1.132785400000000031e+01 2.975944000000000145e+00 5.565483999999999654e+00 1.508555400000000013e+01 1.375455400000000061e+01 6.676484000000000307e+00 1.325615400000000044e+01 5.717259999999999565e-01 2.906763999999999903e+00 5.623724000000000167e+00 1.390495400000000004e+01 1.070335399999999915e+01 9.295244000000000284e+00 5.334133999999999709e+00 8.947074000000000638e+00 1.007503000000000037e+00 1.442585399999999929e+01 7.016504000000000296e+00 7.682444000000000273e+00 8.190063999999999567e+00 7.993083999999999634e+00 6.412093999999999738e+00 3.174634000000000178e+00 5.854563999999999879e+00 1.365065399999999940e+01 8.220993999999999247e+00 4.664329999999999865e-01 9.121989999999999821e-01 1.089685399999999937e+01 8.304004000000000829e+00 1.134135400000000082e+01 1.381735399999999991e+01 3.701423999999999825e+00 8.951814000000000604e+00 9.756864000000000203e+00 1.103957999999999995e+00 2.902114000000000082e+00 1.226935399999999987e+01 6.231323999999999863e+00 5.251324000000000325e+00 7.055874000000000201e+00 7.200349999999999806e-01 2.769423999999999886e+00 7.342334000000000138e+00 6.326923999999999992e+00 6.753974000000000366e+00 1.636585399999999879e+01 1.118255399999999966e+01 1.122185400000000044e+01 1.319515400000000049e+01 1.015995400000000082e+01 3.061043999999999876e+00 1.459385400000000033e+01 1.127715399999999946e+01 6.535403999999999769e+00 2.292863999999999791e+00 9.267564000000000135e+00 8.160493999999999915e+00 1.105625399999999914e+01 7.505524000000000306e+00 1.180965400000000010e+01 7.665504000000000318e+00 1.541105400000000003e+01 1.514604000000000061e+00 2.098253999999999841e+00 1.288775399999999927e+01 7.061863999999999919e+00 1.587515400000000021e+01 8.853410000000000446e-01 2.070800000000000071e-02 1.262421000000000015e+00 1.167385400000000040e+01 1.262815400000000032e+01 6.551294000000000395e+00 8.157683999999999713e+00 8.402034000000000447e+00 1.332015400000000049e+01 3.969393999999999867e+00 5.193133999999999695e+00 1.597055399999999992e+01 1.232365399999999944e+01 1.352115399999999923e+01 9.809953999999999397e+00 1.315545400000000065e+01 4.432634000000000185e+00 4.847424000000000177e+00 1.639055400000000162e+01 1.050105399999999989e+01 1.303715399999999924e+01 3.359903999999999780e+00 1.411445400000000028e+01 8.364694000000000074e+00 2.117144000000000137e+00 1.441305400000000070e+01 4.901734000000000258e+00 9.181634000000000739e+00 4.921453999999999773e+00 3.049024000000000179e+00 4.021183999999999870e+00 1.385235400000000006e+01 3.651873999999999842e+00 6.009240000000000137e-01 1.425125399999999942e+01 2.848043999999999798e+00 1.898903999999999925e+00 9.605273999999999646e+00 1.141575399999999973e+01 2.481043999999999805e+00 1.596255400000000080e+01 1.554385399999999962e+01 1.635725400000000107e+01 1.492295400000000072e+01 1.086255399999999938e+01 2.189264000000000099e+00 3.929283999999999999e+00 5.630203999999999986e+00 8.681193999999999633e+00 8.768883999999999901e+00 2.556993999999999989e+00 2.321953999999999851e+00 1.351974000000000009e+00 3.642383999999999844e+00 9.497493999999999659e+00 2.728650000000000242e-01 1.087025399999999919e+01 2.611774000000000040e+00 3.836203999999999947e+00 1.027743999999999991e+00 1.563955400000000040e+01 6.611904000000000003e+00 1.504345400000000055e+01 2.534343999999999930e+00 8.063183999999999685e+00 1.322205399999999997e+01 3.341100000000000320e-02 1.274965399999999960e+01 1.217295400000000072e+01 4.651513999999999704e+00 2.420834000000000152e+00 2.645313999999999943e+00 1.342795399999999972e+01 1.500305400000000056e+01 8.268283999999999523e+00 9.852873999999999910e+00 2.994244000000000128e+00 4.830134000000000150e+00 2.605694000000000177e+00 1.343665400000000076e+01 1.309435399999999916e+01 1.644775399999999976e+01 9.909084000000000003e+00 3.833003999999999856e+00 1.082308000000000048e+00 9.466360000000000330e-01 8.426273999999999376e+00 1.220125400000000049e+01 4.993534000000000361e+00 1.023119400000000034e+01 5.549640000000000128e-01 2.816119999999999735e-01 5.202814000000000050e+00 1.231165400000000076e+01 1.064355399999999996e+01 1.526345399999999941e+01 1.313385399999999947e+01 2.855014000000000163e+00 9.050404000000000337e+00 1.191425399999999968e+01 8.821664000000000172e+00 2.973933999999999855e+00 3.272034000000000109e+00 1.567825400000000080e+01 1.327505400000000080e+01 1.082075400000000087e+01 1.448105400000000031e+01 1.682374000000000036e+00 5.742333999999999605e+00 5.440953999999999624e+00 4.030123999999999818e+00 4.339903999999999762e+00 6.439314000000000426e+00 5.689233999999999902e+00 1.302245399999999975e+01 9.147394000000000247e+00 7.459590000000000387e-01 4.678729999999999833e-01 8.772073999999999927e+00 1.451955399999999941e+01 1.532525399999999927e+01 1.547954000000000052e+00 6.524854000000000376e+00 1.255955400000000033e+01 1.520755400000000002e+01 3.497964000000000073e+00 9.802023999999999404e+00 4.260933999999999777e+00 9.016794000000000864e+00 7.564814000000000149e+00 8.814873999999999654e+00 2.498219999999999885e-01 1.233315400000000039e+01 4.563843999999999568e+00 2.674513999999999836e+00 4.064093999999999873e+00 8.380153999999999215e+00 6.791973999999999734e+00 1.282003999999999921e+00 8.642134000000000427e+00 3.917994000000000199e+00 8.031114000000000530e+00 8.825769999999999449e-01 5.117163999999999824e+00 1.202565399999999940e+01 1.084125399999999928e+01 7.321404000000000245e+00 7.945763999999999605e+00 1.431953999999999949e+00 1.047545399999999916e+01 1.050535400000000053e+01 5.776513999999999704e+00 1.504385399999999962e+01 8.314664000000000499e+00 1.517115399999999958e+01 1.403505400000000058e+01 1.099645399999999995e+01 6.897624000000000422e+00 9.610834000000000543e+00 1.330785400000000074e+01 3.237503999999999937e+00 6.539573999999999998e+00 3.372490000000000210e-01 3.196314000000000100e+00 1.967533999999999894e+00 9.769054000000000570e+00 1.143755400000000044e+01 2.603784000000000098e+00 9.582383999999999347e+00 1.064325400000000066e+01 1.146715400000000074e+01 1.107625400000000049e+01 3.321254000000000151e+00 7.140813999999999773e+00 1.810853999999999964e+00 4.366994000000000042e+00 3.299673999999999996e+00 1.119375400000000020e+01 1.214155399999999929e+01 7.104289999999999772e-01 6.000180000000000513e-01 4.681613999999999720e+00 1.414625400000000077e+01 8.771663999999999461e+00 1.349985399999999913e+01 1.768334000000000072e+00 8.125733999999999568e+00 1.050525400000000076e+01 5.724123999999999768e+00 1.353705399999999948e+01 2.832549999999999790e-01 9.724154000000000408e+00 5.437643999999999700e+00 2.579654000000000114e+00 1.741613999999999995e+00 1.198495400000000011e+01 1.046875400000000056e+01 1.396045400000000036e+01 8.736133999999999844e+00 8.439944000000000557e+00 1.112535000000000052e+00 1.612375400000000170e+01 9.967503999999999920e+00 1.447295399999999965e+01 2.874633999999999912e+00 1.465855400000000053e+01 1.566625400000000035e+01 9.074604000000000781e+00 1.020187400000000011e+01 2.952183999999999919e+00 1.256526999999999950e+00 4.071843999999999575e+00 6.725723999999999592e+00 9.089883999999999631e+00 1.279185400000000072e+01 2.898874000000000173e+00 8.071763999999999939e+00 1.643475400000000164e+01 1.462935399999999930e+01 2.534924000000000177e+00 9.887453999999999965e+00 1.019779400000000003e+01 9.758293999999999357e+00 9.636824000000000723e+00 1.026633400000000051e+01 1.705073999999999979e+00 1.259415399999999963e+01 1.237385399999999969e+01 6.684344000000000285e+00 1.027485399999999949e+01 1.035805399999999921e+01 3.420404000000000000e+00 1.396435400000000016e+01 5.257343999999999795e+00 1.128305399999999992e+01 1.355065399999999975e+01 9.245820000000000149e-01 1.058775400000000033e+01 1.627215400000000045e+01 1.144075400000000009e+01 1.036655400000000071e+01 4.338703999999999894e+00 1.528845399999999977e+01 2.863674000000000053e+00 4.436734000000000400e+00 2.357493999999999978e+00 6.502754000000000367e+00 1.326783999999999963e+00 1.066195399999999971e+01 8.078063999999999467e+00 1.096955400000000047e+01 8.670453999999999439e+00 8.478163999999999589e+00 9.763643999999999323e+00 1.322495400000000032e+01 3.693754000000000204e+00 1.315625400000000056e+01 1.407695400000000063e+01 1.058295400000000086e+01 1.059635399999999983e+01 1.223945400000000028e+01 1.127285400000000060e+01 1.260065400000000047e+01 1.362295400000000001e+01 5.449730000000000407e-01 1.436193999999999971e+00 9.637544000000000111e+00 2.777223999999999915e+00 9.122213999999999601e+00 1.224735399999999963e+01 6.096000000000000307e-01 1.008326399999999978e+01 1.185335399999999950e+01 8.021463999999999928e+00 5.278334000000000081e+00 2.306744000000000128e+00 1.514024000000000036e+00 1.809244000000000074e+00 7.673834000000000266e+00 1.373125399999999985e+01 1.451975400000000072e+01 3.587363999999999997e+00 5.070693999999999591e+00 9.125754000000000588e+00 6.291254000000000346e+00 6.669734000000000052e+00 6.255154000000000103e+00 7.883464000000000027e+00 1.580694000000000043e+00 5.489373999999999754e+00 1.396855399999999925e+01 1.477333999999999925e+00 3.463763999999999843e+00 1.123855400000000060e+01 6.981404000000000387e+00 1.493955399999999933e+01 1.367745399999999911e+01 6.385294000000000025e+00 1.234285400000000088e+01 1.628185399999999916e+01 1.429665400000000020e+01 6.643244000000000149e+00 1.545485399999999920e+01 1.577695399999999992e+01 1.362115400000000065e+01 2.748063999999999840e+00 8.775014000000000536e+00 2.526384000000000185e+00 1.446585400000000021e+01 7.031404000000000210e+00 1.134675400000000067e+01 1.436685400000000001e+01 9.410254000000000119e+00 9.944914000000000698e+00 5.177973999999999855e+00 1.510664000000000007e+00 1.342445400000000078e+01 4.003633999999999915e+00 4.594724000000000252e+00 1.543965400000000088e+01 1.293195399999999928e+01 1.601295400000000058e+01 5.910889999999999755e-01 5.747303999999999746e+00 7.435763999999999818e+00 8.506164000000000058e+00 7.290893999999999764e+00 2.440373999999999821e+00 1.481695400000000085e+01 1.275475400000000015e+01 1.115105400000000024e+01 7.835574000000000261e+00 2.309334000000000220e+00 1.090225399999999922e+01 1.120705399999999941e+01 1.849704000000000015e+00 1.270025399999999927e+01 2.975474000000000174e+00 2.631943999999999839e+00 8.718820000000000459e-01 3.420593999999999912e+00 1.363995399999999947e+01 1.615855399999999875e+01 5.391460000000000141e-01 1.458104000000000067e+00 5.193433999999999884e+00 1.276035399999999953e+01 3.358404000000000167e+00 1.294525400000000026e+01 1.621025399999999905e+01 1.093725399999999937e+01 1.303305399999999992e+01 1.051515400000000078e+01 1.619095400000000140e+01 1.590335400000000021e+01 2.653163999999999856e+00 7.482634000000000007e+00 9.060663999999999163e+00 3.837563999999999975e+00 4.144683999999999813e+00 1.408995400000000053e+01 2.014164000000000065e+00 6.285473999999999783e+00 1.333365399999999923e+01 4.702874000000000443e+00 6.084183999999999592e+00 7.150123999999999924e+00 2.449030000000000096e-01 5.757424000000000319e+00 5.113413999999999682e+00 9.119709999999999761e-01 8.561624000000000123e+00 6.803703999999999752e+00 9.890724000000000515e+00 5.416824000000000083e+00 1.778844000000000092e+00 1.630119999999999902e-01 3.503900000000000070e-02 8.399834000000000245e+00 7.783284000000000091e+00 1.195165399999999956e+01 1.633285400000000109e+01 1.632865400000000022e+01 1.102365400000000051e+01 1.135425399999999918e+01 2.434194000000000191e+00 1.435705399999999976e+01 4.964304000000000272e+00 8.842774000000000356e+00 1.035905400000000043e+01 3.940964000000000134e+00 5.159154000000000018e+00 1.454015399999999936e+01 1.627665400000000062e+01 1.017155400000000043e+01 2.479464000000000112e+00 8.471714000000000411e+00 7.732534000000000241e+00 3.486823999999999923e+00 4.458523999999999710e+00 1.314705400000000068e+01 8.086384000000000682e+00 1.173145399999999938e+01 6.571483999999999881e+00 1.507945400000000014e+01 4.350813999999999737e+00 6.150704000000000171e+00 4.450674000000000241e+00 1.419035399999999925e+01 1.589355399999999996e+01 8.873663999999999774e+00 8.178473999999999577e+00 1.158045399999999958e+01 6.443284000000000233e+00 1.896584000000000048e+00 8.227724000000000260e+00 1.446965400000000024e+01 1.017566399999999938e+01 7.349534000000000233e+00 1.049815399999999954e+01 1.308015400000000028e+01 1.363245399999999918e+01 8.635194000000000258e+00 1.290965399999999974e+01 1.142835400000000057e+01 6.566944000000000337e+00 1.214625400000000077e+01 5.010214000000000389e+00 4.110184000000000282e+00 1.107305400000000084e+01 8.593854000000000326e+00 6.441043999999999770e+00 7.212623999999999924e+00 1.024647399999999919e+01 4.251010000000000066e-01 1.296735400000000027e+01 9.203663999999999845e+00 2.064103999999999939e+00 5.009403999999999968e+00 5.395883999999999681e+00 6.412473999999999563e+00 9.030943999999999861e+00 1.237165399999999948e+01 1.401275399999999927e+01 1.193525400000000047e+01 1.341565399999999997e+01 1.092895399999999917e+01 7.026393999999999807e+00 2.267523999999999873e+00 8.494744000000000739e+00 1.148225399999999929e+01 1.378395399999999960e+01 6.276314000000000171e+00 1.097535399999999939e+01 4.194014000000000131e+00 1.005828400000000045e+01 1.210215400000000052e+01 2.596249999999999947e-01 1.321835399999999971e+01 7.521269999999999900e-01 3.796793999999999780e+00 3.029523999999999884e+00 1.359245400000000004e+01 1.599034000000000066e+00 8.997203999999999979e+00 1.289433999999999969e+00 3.417044000000000192e+00 6.422029999999999683e-01 1.067069000000000045e+00 1.616995400000000060e+01 8.242694000000000187e+00 1.273055399999999970e+01 8.118304000000000187e+00 1.135459999999999942e-01 9.382623999999999853e+00 6.610333999999999932e+00 1.509975400000000079e+01 1.208135399999999926e+01 6.276233999999999646e+00 1.012129400000000068e+01 1.189575400000000016e+01 9.387524000000000868e+00 4.411044000000000409e+00 7.441113999999999784e+00 7.781603999999999743e+00 1.412675400000000003e+01 1.537905400000000000e+01 1.091165400000000041e+01 4.298134000000000121e+00 2.172203999999999802e+00 4.947663999999999618e+00 4.540593999999999575e+00 8.602859999999999951e-01 9.253704000000000818e+00 4.846254000000000062e+00 3.424993999999999872e+00 2.367653999999999925e+00 3.470343999999999873e+00 1.004004399999999997e+01 5.965484000000000009e+00 2.885514000000000134e+00 2.160994000000000081e+00 1.364225399999999944e+01 8.517623999999999640e+00 1.205735400000000013e+01 9.837543999999999400e+00 8.256463999999999359e+00 1.410323999999999911e+00 1.555165399999999920e+01 4.967293999999999876e+00 7.010334000000000287e+00 4.197563999999999851e+00 7.142453999999999859e+00 7.145839999999999970e-01 1.435365400000000058e+01 1.003967399999999977e+01 1.115485400000000027e+01 7.384564000000000128e+00 8.281454000000000093e+00 1.354975400000000008e+01 4.285954000000000264e+00 9.497614000000000445e+00 1.092455400000000054e+01 1.160285400000000067e+01 7.083593999999999724e+00 1.121115400000000051e+01 1.150905400000000078e+01 1.607945399999999836e+01 3.216784000000000088e+00 6.890443999999999569e+00 1.317135399999999912e+01 1.015698399999999957e+01 3.051730000000000276e-01 1.404445399999999999e+01 7.212634000000000434e+00 6.016653999999999947e+00 1.583575399999999966e+01 1.574345399999999984e+01 1.182135399999999947e+01 1.252935399999999966e+01 3.598923999999999790e+00 7.041934000000000360e+00 6.630274000000000001e+00 9.064534000000000091e+00 1.680174000000000056e+00 4.983924000000000021e+00 5.367974000000000245e+00 4.123453999999999731e+00 4.135843999999999632e+00 7.089973999999999776e+00 7.617123999999999562e+00 9.500263999999999598e+00 1.172275400000000012e+01 1.513895400000000002e+01 2.366633999999999904e+00 9.365043999999999258e+00 1.478055400000000041e+01 1.631464000000000025e+00 1.635525399999999863e+01 7.790423999999999793e+00 1.508515399999999929e+01 1.956553999999999904e+00 6.186840000000000117e-01 2.472733999999999988e+00 1.589265400000000028e+01 5.090953999999999979e+00 1.496415400000000062e+01 1.236425400000000074e+01 3.195803999999999867e+00 7.667343999999999937e+00 6.461193999999999882e+00 7.890183999999999642e+00 4.674349999999999894e-01 1.204445399999999999e+01 1.574765400000000071e+01 4.752673999999999843e+00 2.858083999999999847e+00 6.004299999999999915e-02 1.428455399999999997e+01 6.965043999999999791e+00 5.962043999999999677e+00 4.171333999999999875e+00 5.686874000000000429e+00 1.397665399999999991e+01 1.072257000000000016e+00 1.014561400000000013e+01 4.108623999999999832e+00 7.618774000000000157e+00 8.767523999999999873e+00 1.207740000000000063e-01 9.838433999999999457e+00 3.701734000000000080e+00 4.133414000000000144e+00 2.901199999999999890e-01 5.246923999999999921e+00 1.474055399999999949e+01 1.515765400000000085e+01 1.719934000000000074e+00 8.191563999999999623e+00 2.830934000000000061e+00 8.372804000000000357e+00 4.178524000000000349e+00 9.221313999999999567e+00 6.075254000000000154e+00 1.518855399999999989e+01 8.526094000000000506e+00 3.641703999999999830e+00 1.419215400000000038e+01 2.408873999999999960e+00 1.419735400000000070e+01 1.199225400000000086e+01 2.298074000000000172e+00 4.760664000000000229e+00 6.352024000000000115e+00 1.646835400000000149e+01 8.017320000000000002e-01 1.491365399999999930e+01 1.652093999999999951e+00 3.641804000000000041e+00 3.195183999999999802e+00 5.848043999999999798e+00 1.448925400000000074e+01 1.272674000000000083e+00 3.118484000000000034e+00 3.724514000000000102e+00 1.544775399999999976e+01 8.536713999999999913e+00 1.574865400000000015e+01 1.394805400000000084e+01 1.184555399999999992e+01 1.685624000000000011e+00 1.392563999999999913e+00 4.849984000000000073e+00 1.446805400000000041e+01 3.421073999999999948e+00 4.326293999999999862e+00 1.089795400000000036e+01 3.220974000000000004e+00 5.779143999999999615e+00 1.223685399999999923e+01 5.539124000000000159e+00 1.780254000000000003e+00 9.525123999999999924e+00 1.464895399999999981e+01 1.400785400000000003e+01 1.547725400000000029e+01 2.864824000000000037e+00 1.690384000000000109e+00 7.968644000000000283e+00 1.352145400000000031e+01 7.137599999999999500e-01 7.602259999999999573e-01 1.417334000000000094e+00 1.219955399999999912e+01 8.897933999999999344e+00 1.635583999999999927e+00 1.125515399999999921e+01 8.632783999999999125e+00 1.162655400000000050e+01 1.117285399999999917e+01 3.812873999999999874e+00 8.868233999999999284e+00 8.323093999999999326e+00 7.127244000000000135e+00 1.324865400000000015e+01 7.844553999999999583e+00 1.268915400000000027e+01 1.547495400000000032e+01 7.121033999999999864e+00