-7.779938766946450050e+04
-7.780285888089360378e+04
-7.780952789876078896e+04
-7.780087078931806900e+04
-7.778680135128666006e+04
-7.779766564300781465e+04
-7.780469174112955807e+04
-7.778234954444580944e+04
-7.780524101010948652e+04
-7.779730102981248638e+04
-7.779360015469795326e+04
-7.779997643786745903e+04
-7.779667733587704424e+04
-7.780219473758108506e+04
-7.781179796280460141e+04
-7.780155289252840157e+04
-7.780269255421447451e+04
-7.780344706513367419e+04
-7.780021214152214816e+04
-7.780351737033296376e+04
-7.780175209120614454e+04
-7.779541200562947779e+04
-7.781974090474144032e+04
-7.780585375752704567e+04
-7.780780674967190134e+04
-7.779892611250665504e+04
-7.779739308038045419e+04
-7.779867712380514422e+04
-7.780440788134893228e+04
-7.781129360255345819e+04
-7.779560630159544235e+04
-7.781060310256599041e+04
-7.779842754929431248e+04
-7.780094436665314424e+04
-7.778378524456568994e+04
-7.780339007207516988e+04
-7.780425463855247654e+04
-7.780297834435138793e+04
-7.780258146490561194e+04
-7.780425997191523493e+04
-7.780140223030858033e+04
-7.781367462597484700e+04
-7.780634781711036339e+04
-7.781354260530836473e+04
-7.779761381015769439e+04
-7.780267511910073517e+04
-7.780214599239453673e+04
-7.779728471174975857e+04
-7.779526747356828128e+04
-7.780410057951377530e+04
-7.779623100681198412e+04
-7.779800524805556051e+04
-7.781940511496392719e+04
-7.780562898418848636e+04
-7.779805288513483538e+04
-7.781447364328973345e+04
-7.781715747946570627e+04
-7.780201511546339316e+04
-7.779279581735664397e+04
-7.780094695198042609e+04
-7.780611176537863503e+04
-7.780690934783723787e+04
-7.779459608468401711e+04
-7.780518088992910634e+04
-7.780112891721974302e+04
-7.780370953398068377e+04
-7.781027340805037238e+04
-7.779095298604795244e+04
-7.781093100614739524e+04
-7.779167338382815069e+04
-7.781464326356953825e+04
-7.780927021814092586e+04
-7.781236568439807161e+04
-7.779540744263349916e+04
-7.779915811877648230e+04
-7.779732779536656744e+04
-7.780848579056900053e+04
-7.780465597829959006e+04
-7.780115586290355714e+04
-7.779313259507718612e+04
-7.780482561134854041e+04
-7.781423195681736979e+04
-7.780056096689835249e+04
-7.780531924438056012e+04
-7.779460688541604031e+04
-7.779218049052693823e+04
-7.778724645989350392e+04
-7.779821443949354580e+04
-7.779495231901652005e+04
-7.779788793467458163e+04
-7.780835471055860398e+04
-7.780432125689965324e+04
-7.779891116833269189e+04
-7.779843264806670777e+04
-7.780676008162245853e+04
-7.781194721272187599e+04
-7.779921393584049656e+04
-7.780677577959530754e+04
-7.779343568105460145e+04
-7.780438331813673722e+04
-7.779990331928900559e+04
-7.781197378669862519e+04
-7.780087808014218172e+04
-7.780313095580421214e+04
-7.780740631754578499e+04
-7.779951063161451020e+04
-7.780436831386284030e+04
-7.780744270487566246e+04
-7.780837620375752158e+04
-7.778329607032204513e+04
-7.780148968817919376e+04
-7.779076425235533679e+04
-7.779929204939478950e+04
-7.779602403165171563e+04
-7.778395750819967361e+04
-7.779419461423651956e+04
-7.779244566295138793e+04
-7.781843652095078141e+04
-7.779840661216383160e+04
-7.780163594108764664e+04
-7.780863568020773528e+04
-7.779555804728282965e+04
-7.780577005623075820e+04
-7.780531083763565402e+04
-7.779826940888320678e+04
-7.781345086238812655e+04
-7.780295553140225820e+04
-7.780343964200704067e+04
-7.779724437497931649e+04
-7.781474350092772511e+04
-7.779703293919326097e+04
-7.780237388129740430e+04
-7.779928404693103221e+04
-7.779691039194742916e+04
-7.778543491120799445e+04
-7.779893516707718663e+04
-7.779204866270022467e+04
-7.779200074672099436e+04
-7.780331230448899441e+04
-7.779900422670082480e+04
-7.779291274527304631e+04
-7.780973879493187997e+04
-7.780222991923139489e+04
-7.779890538029631716e+04
-7.780546522796954378e+04
-7.779759137471311260e+04
-7.779949855853518238e+04
-7.779931701855669962e+04
-7.780308616068788979e+04
-7.780069105711086013e+04
-7.779251446316302463e+04
-7.780282140921542305e+04
-7.780158723819522129e+04
-7.779970956616950571e+04
-7.780495906032819767e+04
-7.779779532330343500e+04
-7.779724006677845318e+04
-7.781709549820706889e+04
-7.781368531958889798e+04
-7.779680513079713273e+04
-7.780844785935957043e+04
-7.780003691341610102e+04
-7.779663323954997759e+04
-7.779796835229877615e+04
-7.780560882569414389e+04
