4.142541701286503120e+00 1.382886461551387391e+00 2.020912962853348205e+00 3.651371996710856216e+00 1.897317452570624674e+00 4.013624521240655163e+00 1.516971559378606227e-01 -3.343437630497650304e+00 7.430000240688074964e-01 -1.253238059706025753e+00 -4.047950293943126887e+00 1.787347761727778428e+00 2.729780561193394739e+00 4.449309815009346303e-01 7.411058407912496371e+00 -1.411072953617860559e+00 3.864503610883357698e+00 -1.235268618226423420e+00 3.014122997069137444e+00 -1.469226169726837616e+00 -5.032286936195200511e-01 3.251111879447280639e+00 1.045399781737469169e+01 -3.227425332505660105e+00 -1.078941933553669186e+00 -3.108061344155564676e+00 2.803249325879520359e+00 1.719706659948744720e+00 -5.155297263350044012e+00 -3.926674947344935163e+00 8.791842221124776202e+00 3.890622935837283247e+00 -9.475107286289032871e-01 9.647587185018128286e-01 -3.215423936177360886e+00 3.451284618395074055e-01 1.586440715656423528e+00 -2.023702610013939029e+00 9.852041325303999564e-01 -2.235989359617804872e+00 -1.781305154578635364e+00 1.900752446678043217e+00 6.345784974114708987e+00 7.582171508088068279e+00 1.458777205615648109e-01 -1.116228588901428065e+00 -2.364570753563032923e+00 7.404052665439520009e-01 -2.712304257340890867e+00 -3.089730405541603275e+00 -4.003148303433702537e+00 -6.040365147001094392e-01 -1.688944950743056950e+00 2.777424135151560058e+00 -3.164536658202788733e+00 -7.387340493509715333e-01 7.597574474179926263e+00 2.000222265562899171e+00 -3.632394168488043640e+00 1.313620422440101354e+00 3.660453133827175076e+00 -9.801585992696227878e-01 3.565141817539130731e+00 1.958371901726616349e+00 1.795502787408848944e+00 8.802480932664953350e-01 -1.049607700941124211e+00 4.826820295400720440e+00 -2.381695844694673436e+00 -9.890345623367114980e-01 1.366241138309300496e+00 -1.502439683109796642e-01 -1.138237748001970306e+00 -1.715403147121650873e+00 7.845619101065479106e-02 -8.428143708057542760e-01 -6.340504956226239663e+00 -6.146376881310288559e-02 -2.952768757259759180e+00 1.587032583653075868e+00 1.081451844667188578e+00 -1.899104883636101970e+00 3.676105496946294071e+00 -8.207429910035656251e-01 1.199991537275639564e+00 3.119207077281057838e+00 2.449095776977243677e+00 -4.650286795092468672e+00 -5.566528278709692579e+00 4.323356602932832971e-01 -1.524222070892768122e-01 3.551414182405650433e+00 -2.432262763188867805e+00 -1.769132522765639592e+00 -3.063133883801498314e+00 4.250319783613508484e+00 4.207780364073043233e-01 3.494326945755457547e+00 2.376373660710874081e+00 3.346141917026230206e-01 5.414599209247514366e+00 -1.738915373254526164e+00 -9.019123645604738115e+00 -1.620793742054657871e+00 1.582235418978209518e+00 2.749581656716503897e+00 2.958387132352222171e+00 2.556224398592022773e+00 -1.452995308348609793e+00 1.739997807774902761e+00 1.702870560836320823e+00 -2.170060098465057763e+00 -3.039549666774156389e+00 9.308355805876804556e-01 2.566159142028448858e+00 4.140806720729852231e+00 -3.494748092488089153e+00 3.648849230080467798e+00 2.354725998744689797e+00 2.818813757263254893e-01 -3.576096260573612129e-02 -3.062447399200689535e+00 -6.576897856842333079e-01 2.688111717255303734e+00 -3.202566876646255167e+00 -5.552812470651733889e+00 4.736574566979768086e+00 -2.501472752246604703e+00 5.611145149776202157e-01 2.715557731550117815e+00 -1.151696497144616593e+01 2.131692551258947077e+00 3.089850218958823280e+00 6.121534880512474963e+00 -7.965977592200569113e+00 4.076096162576293480e+00 1.396491197943598772e+00 1.921971762822149432e-01 3.489690732151791597e+00 1.781543238751050751e-01 -4.172180352538507719e+00 2.461930210798660035e+00 -1.330301741129421567e+00 -4.632140975921423376e+00 1.162802069635411190e-01 1.804908911991618847e+00 -1.082830984516903960e+00 5.454885828011842186e+00 -9.970954856343001715e-01 -8.167701220703447174e-01 -1.652381289664015263e-01 -3.418804383694327598e+00 -2.653143682930052538e+00 -4.665693874949725095e-01 -2.063845246989332693e+00 8.241872410831300177e-01 9.367357486099141539e-01 -4.241343547514841106e+00 3.546011779996588231e+00 2.725832374852562440e-02 -2.007701605277330437e+00 -1.504832351909469956e+00 -6.157504616712164980e-01 2.487643815640196099e+00 -1.006874934426948087e+00 -1.959319610430205083e+00 3.382707120767296072e+00 1.019502137316434354e+00 -7.117986561861971984e-01 9.444500871727123936e-01 4.336470258580646053e+00 3.007116226154812888e-01 2.175145740938466243e+00 1.490520562089458823e+00 1.843216809599456996e+00 2.869100425489703898e+00 -1.802544525329057068e+00 3.894080041433716777e-01 -1.165316608735003534e+00 -4.365915048638265183e+00 8.001417681105251756e-01 2.727882572682843509e+00 1.087101073000138030e+00 -1.865036221271011652e+00 1.836982398138627293e+00 1.806540534192642378e+00 -1.259755806758649843e+00 -2.954509394243832965e+00 1.730844165543442115e+00 1.408628862750710642e+00 5.758623639298304786e-01 1.153479763022628113e+00 2.641610741636461590e+00 4.677572886757432435e+00 -3.546014351099961437e-01 -5.599135525917106726e+00 -9.289257650016098378e-01 2.346369912779787015e+00 -4.183657243778549528e+00 -1.805158823239553456e+00 -4.143463184735677984e+00 -2.332507037608844147e+00 -2.576105712540394777e+00 2.704292185007404203e+00 2.903855572455602690e-02 -1.596531782177977588e-01 2.443859467846129230e-01 -3.366843927171524253e+00 4.964296164357328678e+00 2.587075067974444753e-01 -3.130041192677644801e+00 -3.391228271568797581e+00 9.239299054580147441e+00 6.057617250639402151e-01 -3.913819944696529163e+00 -4.550476047900245291e+00 1.151128386143138194e+01 -2.098183360987998736e+00 -3.647627441757229860e+00 -8.078318868795424379e+00 3.929928421554162554e+00 -4.609425791834430797e+00 1.938273586653494140e+00 3.871561803865158691e+00 3.060487189988491674e-01 1.860873604908803269e+00 2.241123338834641654e+00 1.596222221331770053e+00 2.537226515762894263e-01 1.942228457863098390e+00 1.810433698921275258e+00 -4.798242481400751380e+00 2.051664901866215640e+00 5.192955186024982295e-01 -1.803422300020878000e+00 1.159561965163727892e+00 1.548093223056627998e+00 -1.703664517558155234e-01 -1.866716180215463261e+00 2.539331220984700543e+00 2.757667776827155692e-01 6.023638062671721194e+00 1.051493862376156052e-01 2.472708790362372344e+00 5.169722695939177326e-01 1.006290265519742100e+00 1.031438741839714179e+00 3.725766872832231069e+00 7.212063234309910031e-01 -2.066996905504956406e+00 -1.048112861439587373e+00 -1.378181856597978205e+00 7.016222290326322719e-01 -9.085898799767471168e-01 6.170529826403918783e-01 -1.037718918940597979e+00 1.870241162940965429e+00 6.567756041686391377e+00 1.531960063606605749e+00 -4.030298126619854315e+00 3.587195199617702723e+00 -1.816096296991768000e+00 -6.450368717610084346e-01 7.589080577074187595e+00 6.112860491949893671e+00 -6.797944869861464845e+00 -9.465447136692931807e+00 -1.088127971687640194e+00 -3.217278215930557406e-01 2.522708523452303009e+00 -1.105327624817121629e-01 -1.615581601295257297e+00 1.741735359434928077e+00 -5.437815758492400953e+00 -4.615899315909025802e+00 -1.868241358736811186e+00 1.326540216893528301e+00 -8.654097414755267392e-01 1.897141074879181266e+00 -3.873210395348449353e+00 1.903677848096771541e+00 7.954911563279662978e-01 1.559732608029894552e+00 2.956722085807339084e+00 -1.654327614917994183e+00 2.874669435397390060e+00 -3.224868113090063049e-01 -8.157339674106968419e-02 3.320112066469713685e-01 1.080786443114045037e+00 -7.298891452126386348e+00 -2.331061049071409652e+00 -1.622314806810607690e+00 -4.321181449478584957e-01 -2.924540613318630022e+00 -1.472332062602407454e+00 -7.304561249286326330e+00 -1.023247720711410180e-01 1.174887798154371943e+00 -2.503252984222635202e+00 9.403357561318642865e+00 4.232494323922840529e+00 4.008273026678393358e-01 -5.177507996955093006e-01 -6.331907700764873026e-02 7.799298102682805656e-01 -3.209182325627084165e+00 -3.867721603866026925e+00 1.136758849341351185e+00 1.214333151894786855e+00 4.218440158660885508e+00 7.880575822535885733e-01 1.143009201643098605e+00 -4.183415045840735758e+00 -2.687151153034845752e+00 -3.275071477567200184e-01 -1.171099534443391210e+00 1.188992871263128137e+00 1.516778212404895410e+00 -1.695200445251551780e-01 -5.112027136230739011e-01 1.853873004642576205e+00 -2.275087100182080047e+00 1.231110629850287852e+00 -1.705261686973969848e+00 7.222974997028387412e-01 1.540810829860631004e-01 3.237653695947376953e+00 3.825950944234332574e-01 -5.677960927372241784e+00 -3.160210005445330594e+00 9.175599454273174471e-01 3.275824810855728408e+00 -1.009445523580089432e+00 -1.635748307718122740e+00 -1.912022106986155157e+00 1.123497098139206729e+00 -3.304212877426708328e+00 -1.759013688327648373e+00 1.301918816765188724e+00 -4.211693069187316674e+00 -9.683294668673687600e-01 1.190494909854111771e+00 4.782784493696694561e+00 1.128442358368404896e+00 7.326873284364303629e-01 -2.608000249892585831e+00 -1.339207528995646435e+00 -2.991193382960768865e+00 -1.456336200072546827e+00 5.097228379431728129e+00 -2.158780153743451002e+00 5.488884042144489550e-01 1.110552106872716216e+00 1.932225837297603555e+00 -2.523248455160804760e+00 1.932055630254257139e-01 8.227726200068563589e-01 1.701405031913245436e+00 -3.893482517009641874e+00 1.324014879159765901e+00 -5.536242737848836803e+00 -2.969722612906703585e+00 -7.242782777420267992e-01 -2.403436580602988926e-01 -5.905572481525401818e-01 -2.389547480177633687e-01 2.005942456348965397e+00 -1.882710500083299765e+00 -2.223391467306779390e+00 -1.420164375147675018e-01 -8.348485783329967491e-01 1.623481573521645238e+00 8.067541317673060375e-01 -3.974312350655003545e+00 -1.078577351095262093e+00 2.965599591536451918e+00 -1.744982662996057865e+00 5.583294958031024269e-01 1.551801268342345885e+00 1.239420435954462052e+00 -1.896045270621260714e+00 1.006733009520713207e+00 -9.250680814995356771e-01 2.316826906573288269e+00 -7.613037089870058026e-03 1.008213450843356895e+00 -2.832575845181944274e+00 8.950473642861818124e-01 -1.882006531979548702e+00 1.022490273657483684e+00 9.149029672008156533e-01 -7.704660929699376215e-01 9.035104081514356844e-01 -3.946892561614602446e+00 4.278308300720198076e+00 -5.566155982941164426e-01 -1.172423652680906647e+00 1.574605926826747160e+00 1.194716147373243276e+00 3.650575983106322808e-01 8.065139907121915419e-01 5.371132135609776981e+00 3.564219819869280048e+00 -5.668592340898729098e+00 1.426556138134982277e-01 -1.151691303515801401e+00 -1.316816303933755039e+00 -6.692673099103255474e+00 -1.987713847649282606e+00 8.071824775893837733e-02 -5.265912815360392907e-01 2.269110313279306457e+00 -1.330598446458759909e+00 1.995872472875076298e+00 3.110603136950919279e+00 3.398726123227521212e-01 1.590439295623382598e+00 2.942138273250378244e+00 -3.198571896224019273e+00 -1.112196584590609438e+00 -2.490880834787831066e+00 -2.855160931438220917e+00 -3.318671734359702086e+00 -2.329827433672652770e+00 -2.385895999166139703e+00 -4.345107109033969905e+00 1.369063181372401461e+00 1.158398283776738591e+00 7.784802221861228944e-01 7.741006046991643075e-01 1.002395043908410610e+00 3.418021225606662661e+00 -2.838821569497618658e+00 3.620946587826463503e-01 8.044329396414247046e-01 -1.478329418332171574e+00 1.222057260650405874e+00 8.321576615419604694e-01 -8.299927925012070551e-01 2.089750656142556284e+00 -2.071431030383440230e+00 3.407871023707511160e+00 -2.110197098612492717e+00 1.365803536515077132e+00 1.550743002193683218e+00 -1.503787969719025730e+00 -5.771952753408843506e+00 1.629349345641369018e+00 3.663839276970491721e+00 -2.609331052998873357e+00 2.084846019346664026e+00 -3.670735490439740900e+00 -2.193277161930618835e+00 -2.060048241526880819e+00 -1.045374122125798388e+00 6.772414841800818985e-01 1.387610606890437026e+00 1.254770951537494739e+00 -5.543720534901243058e-01 2.450517597142964021e+00 2.276485780417435711e-01 1.079256636606624326e-01 4.493113703189053787e+00 -1.032744348132937917e+00 -1.746819459246312212e+00 -6.026306353753067002e-01 -5.814647981813761968e-01 -1.749970603541261438e+00 1.570889139789558131e+00 4.504002325977166654e-01 -2.561067843127618371e+00 3.949408129155544067e+00 -2.412697180734800995e+00 -1.689420604867212725e-02 3.324100876243852198e+00 -2.088937673255755190e+00 9.736358642764534110e+00 -6.388038486960005535e+00 9.240351664301389434e+00 -1.230961505854606397e+00 -2.638186031942538534e+00 -2.350778840845206830e+00 1.453447822542401680e+00 3.141741255690533308e+00 -3.665313033424362654e+00 -3.423145948851353371e+00 1.456856077174732533e+00 2.306043184802828161e-01 6.617367023946201243e-01 -2.780951688980436209e+00 4.900510174976994371e+00 9.236184934173782279e-01 6.199161633574737928e-01 -1.832607408637741742e+00 -2.469308763260837480e+00 -1.494641526577011437e+00 -1.200518613467272067e+00 3.721011360032020043e+00 -3.447921615182122368e-01 4.418101762257963805e-01 -8.479519495673140117e-01 -9.912883915541987889e-01 -6.690715460994431929e-01 -1.100634332718557484e+00 3.999608408308632547e-03 3.252345494846037521e+00 -3.533049305227155656e+00 -7.217999912000053087e+00 2.742251440997753309e-01 -9.796824309247919027e-01 -2.337440470762523148e+00 -2.261065330822634944e+00 1.163321432516922077e-02 -2.037400934568957656e+00 6.354204309222607483e-01 9.308648911661420167e-01 -2.013029959909227173e+00 2.643933990645042975e+00 -1.249391689058796523e-01 3.997242993204721401e-02 -1.595112533115631073e-02 -1.363661293184013301e+00 -3.507092988227130115e-01 -1.511272965860879669e+00 2.836579567355650866e+00 1.663084278788537596e+00 9.094455431795532840e-01 2.706785641059331615e-01 -1.139457993663183455e+00 1.561522095978070679e+00 2.800753812944894783e+00 1.578093371442991444e+00 -5.090696748420885598e+00 1.104420025326164456e+00 1.275182427001547714e+00 2.172842546536201791e+00 -1.470335343722301902e+00 1.892113025121345826e+00 1.582465789840503456e+00 -2.438587163267781577e+00 3.438404933154278531e+00 -1.995368536613808752e+00 -1.874933426598180075e+00 -1.597745342970419147e+00 8.008729899100385241e-01 -8.943788774089896920e-01 1.072622675681503601e+00 2.182854423073842476e+00 3.268690513214063120e+00 3.439086789769014718e+00 -2.183357845114435314e+00 1.577080870934382650e+00 -1.554170797211655186e+00 -2.644225039546958644e+00 -1.215499918605824847e+00 -1.995741860823686820e-02 -1.630295511682933407e+00 5.299162324190584972e-01 -7.119272113548880121e-01 -5.392086628106379287e+00 -1.758840395960252836e-02 1.561262414537315291e+00 2.685844004079597891e+00 1.470063320985352195e+00 -3.377926411154021924e+00 -4.785353025967136187e-01 -4.395977931946949191e+00 -3.708232462043478783e+00 7.826855188643367933e-01 -1.806063851627136785e+00 -4.631755310415350269e-01 2.602053287788948843e+00 9.651243294015693364e-01 2.387967794264761245e+00 3.785600047885659403e-01 -2.182450245623478224e+00 6.335288701701441205e+00 -4.251863988299822594e+00 -2.152299430579409201e+00 1.814669334619300189e-01 -1.594465129286104066e+00 2.134008601178080333e+00 1.794576675973600377e+00 -2.530198661800904691e+00 -6.912668530842497105e+00 -2.743152355619938643e+00 1.857481805338064618e+00 -1.420116552624922202e+00 -3.405945781501197311e-01 2.901662935498412033e+00 -2.461625792159199619e-02 -7.661060158686198163e-01 3.665489925336481214e+00 1.089907175222321056e+00 -6.304410264402582342e+00 -4.350255486429698837e-01 -1.214278644503262061e+00 -3.491180943667255843e+00 -2.002527516847862454e+00 5.149992048648511789e-01 4.259320702304564832e-01 -1.394160749845571701e+00 2.445403158311768355e+00 1.505478727297647479e-01 8.208463493591930948e-01 -2.472828089558917419e+00 -2.058793543080458477e+00 -4.413442408723933674e+00 -2.222819653916443094e+00 -3.533962046924860267e+00 5.130519025915901921e+00 6.714575300303448069e-01 -3.953868479288440985e-01 5.804137311221601037e-01 -1.164709828338782893e+00 -3.593345278887871252e+00 2.405494491743392249e+00 -5.726068328379042782e+00 6.012575119074864638e+00 5.903082625018198470e+00 2.825141756886891731e+00 -2.277285393566692573e+00 -1.360352797362586408e+00 3.570904174420527877e+00 -1.594871363619167148e+00 -3.561728934920726508e-01 -2.935184467065554692e+00 3.121755040724509822e+00 -6.508269965588427963e-01 -1.535308154419989135e+00 -3.894839545370341494e+00 -3.676137892848804212e-01 -3.406092848614179491e+00 4.043577361324940611e+00 2.123396114892316167e+00 9.973078587729775624e-01 -3.500937766750214397e+00 9.019240373697909874e-01 1.102164139225978001e+00 1.046030267706796524e+00 -2.987140809822959486e+00 -1.602910175427741279e+00 -7.691004771239686733e+00 5.464277040195043789e+00 -4.016544266231960592e+00 -3.305623384737584214e+00 1.986660723707367460e+00 -5.114117957494327626e+00 2.424442495167068223e+00 9.052237914397467389e-01 -1.531391849760992407e+00 8.872296673677561030e-01 -2.017616808328115852e+00 3.125325274869391046e-01 -1.087902228811419070e+00 -1.128543145620658494e+00 -4.202204669296585315e+00 3.067083612804355042e+00 1.433866299247416709e+00 4.300928353982359731e+00 -5.900419990364274003e-01 -4.010522227909808279e+00 -3.999618692722127777e-01 -5.779655264896121913e+00 3.197322339984344897e+00 -5.095890891456668070e-01 4.863218377422487748e+00 -6.387469244673043001e-01 2.829934807796360197e+00 1.912152719037544912e+00 -6.517942456480725344e-01 5.801411941645356896e-01 -1.107851934109534531e+00 6.559049257221299944e-01 -1.298955363016528031e+00 4.342700042055402498e+00 5.295309268674583514e+00 3.142195826767024247e+00 3.190649298287941971e+00 3.955201853498101716e+00 4.415311600876698606e+00 -1.311000468102182792e-01 1.657972925281390841e+00 -3.177287788274893110e+00 -4.198604096131893115e+00 9.177790034347665937e-01 -1.643187023999248264e-01 1.634606223599473829e+00 1.874088047808869284e+00 2.963342162774240673e+00 2.850408503962059026e+00 -2.461765145962060419e+00 5.061340404319325526e-01 -1.692384572836548307e+00 -2.503041125304633074e-01 1.967098740798023382e+00 4.281755636123810937e+00 -4.227320749714046921e-01 1.148023367442714965e-01 1.519002731043921084e-01 -3.109242509045495595e+00 2.677886439137636132e-01 -7.361387776054413301e-01 7.844600944129448417e-01 -5.867489298352435156e-01 1.642006887550666594e+00 -5.788263318991658801e-01 -8.551027022705720571e-02 2.140803513174402095e+00 -7.184773543100224646e-01 -2.367587686261868996e+00 1.118036074573220962e+00 4.648706080738246982e+00 -2.795801867846924083e+00 -1.647418545931875089e+00 -3.855732548833921136e+00 -4.434135162897082649e-01 4.279982089016552971e-01 -2.392376208109506130e+00 4.690772417257930288e-02 1.051473293549165522e+00 -1.284025479945451576e+00 -1.736224970684165092e-01 -4.022799760740455866e-01 1.305661314836115805e+00 4.463149550249924324e+00 1.183010942153607026e+00 1.973565065783171590e+00 -1.372049775051426224e+00 -1.348787974387160693e+00 -5.362581160009137760e-01 1.145635840849789311e+00 4.519619207869726707e-01 -8.233248930115520947e-01 -7.156743374118879064e-01 3.158290933887113905e+00 8.848076879896210611e-01 1.647813981630767977e+00 -1.624089896579890224e+00 -6.378192703700313881e-01 7.735725000661823891e-01 1.147302944277371672e+00 2.396960485425020604e+00 -3.240988931243891091e-01 3.596506707596315522e+00 -1.240990865895189144e+00 7.499188632477471472e-02 2.466292344782676338e+00 -1.592179418386781453e+00 -6.248537102765504558e-01 1.164940199201076831e+00 -2.307817246130761113e-01 3.085650064487357458e+00 1.150459744999743572e+00 -2.048758526612453057e+00 -2.820936460208677943e+00 -7.883280623285140454e-01 8.094872146536726820e-01 -3.598499312711023190e+00 2.459803908308513698e+00 -2.019693231412809542e+00 -2.629066328275612707e-01 -2.010820867890444674e+00 -2.379249696944824244e+00 -1.672871440891306793e+00 1.897051086261097197e+00 -4.875681029696050661e-01 2.247788153000247480e+00 -5.353607495013844364e+00 -1.499634095108288045e+00 1.846036281559183978e+00 4.271744273806845071e-01 8.757733449547053795e-01 -6.894002320348592283e-01 -1.778812726968058033e+00 -3.590885247179803619e-01 4.948942049229572149e-01 1.701812808908332642e+00 -1.772862165319697647e+00 4.836049528071371562e+00 2.959124524799833011e+00 5.551772202226686659e+00 -6.721764105336638373e-01 -4.258986458865968716e-01 -1.361614694898455546e+00 -3.336418004066457055e-01 -1.380099899714845035e+00 -2.293554821495527474e+00 -1.581976251758129060e+00 -4.306204258105430505e+00 6.282100286207302764e-01 8.918113735798967046e-01 3.326303283393863830e-01 -9.161355541582231199e-01