-4.981660601619107354e+01 4.215517224599853563e+01 5.772832400252134732e+00 4.215517224599853563e+01 -9.637113017975102025e+01 1.300058134462960879e+01 5.772832400252134732e+00 1.300058134462960879e+01 -4.490899283034752898e+01
-7.279254281326147691e+01 2.494491514447759783e+01 -1.529483428704027048e+01 2.494491514447759783e+01 -9.732142626601962832e+00 -2.434097822263442978e+01 -1.529483428704027048e+01 -2.434097822263442978e+01 -8.105817353619511323e+01
-5.528186095528893418e+01 -3.075931164265531947e+01 -1.741603710261363247e+01 -3.075931164265531947e+01 -7.196267199806624149e+01 8.336912723016721927e+00 -1.741603710261363247e+01 8.336912723016721927e+00 -9.698206643939656146e+00
-5.545496017388060039e+01 2.660951946244484034e+01 -5.624238090488991482e+00 2.660951946244484034e+01 -9.838404134561490366e+01 -2.286793526357105577e+01 -5.624238090488991482e+00 -2.286793526357105577e+01 -1.184354926772568888e+02
-1.172502639583369586e+02 -1.440341067157550015e+01 5.205121761133977287e+00 -1.440341067157550015e+01 -1.295383623117517402e+02 -9.442514450048234309e+00 5.205121761133977287e+00 -9.442514450048234309e+00 -1.176947742781872677e+02
-1.116196854423197777e+02 1.759624699199044429e+01 4.103766404838586368e+01 1.759624699199044429e+01 -6.426777700169699870e+01 -1.787089122982251155e+01 4.103766404838586368e+01 -1.787089122982251155e+01 -9.814985185140697865e+01
-5.393615443525384023e+01 -2.255053161060882516e+01 -1.639111166252043006e+01 -2.255053161060882516e+01 -1.077256627139088607e+02 -3.342666656879325160e+01 -1.639111166252043006e+01 -3.342666656879325160e+01 -7.460083113807624500e+01
-6.614861012507536486e+01 4.347166278608029444e+01 -1.559942568189078171e+00 4.347166278608029444e+01 -2.229519251309085703e+01 -5.599862036060676473e+01 -1.559942568189078171e+00 -5.599862036060676473e+01 -3.877398897072742301e+01
-4.063911266641634512e+01 -3.781443509285960403e+01 8.738926163601282937e+00 -3.781443509285960403e+01 -7.557738300090632322e+01 -1.716114621480324942e+01 8.738926163601282937e+00 -1.716114621480324942e+01 8.808182953631989776e+00
-1.197249323015342668e+02 -8.743397261743332649e+00 -3.003283270666763372e+01 -8.743397261743332649e+00 -1.482966518227523238e+02 -1.738330636162360276e+00 -3.003283270666763372e+01 -1.738330636162360276e+00 -7.956653320394283924e+01
-2.866491910778367469e+01 -1.078183327849956719e+01 4.668454912822009106e+01 -1.078183327849956719e+01 -6.731588280690903048e+01 -4.131986749106940238e+01 4.668454912822009106e+01 -4.131986749106940238e+01 -1.807505530577591557e+01
-4.827374650369052489e+01 2.161975635784275696e+01 1.852337629228499694e+01 2.161975635784275696e+01 -7.640919809889761893e+01 -1.106608307394960633e+01 1.852337629228499694e+01 -1.106608307394960633e+01 -3.473040636399755954e+01
-3.646017134130821802e+01 1.180647658048772186e+01 1.706446183503151914e+01 1.180647658048772186e+01 -1.041266463715813160e+02 -1.283299584118295478e+01 1.706446183503151914e+01 -1.283299584118295478e+01 -3.643403219665716364e+01
-4.937202338126248691e+01 -5.681277615388611313e-01 -2.072196455993666220e+01 -5.681277615388611313e-01 -7.400086237938648992e+01 -2.356193107163340272e+01 -2.072196455993666220e+01 -2.356193107163340272e+01 -7.162563222018555109e+01
-1.366834804835307011e+02 1.546097047452845175e+01 4.308134845547929359e+01 1.546097047452845175e+01 -1.090883383560190651e+02 -5.873626739158717136e+00 4.308134845547929359e+01 -5.873626739158717136e+00 -4.341006327354529759e+01
-6.042520806520919763e+01 -3.052242523396045826e+01 -3.932573522880787209e+00 -3.052242523396045826e+01 -6.421480052409357597e+01 1.108401056038028631e+00 -3.932573522880787209e+00 1.108401056038028631e+00 -8.131534527812816293e+01
-2.929293922328420763e+01 2.122971454042620820e+01 3.045826087985598107e+01 2.122971454042620820e+01 -8.276170350366066941e+01 1.143708421918793405e+01 3.045826087985598107e+01 1.143708421918793405e+01 -6.290084541872410284e+01
-2.106513234244033228e+01 3.258808307538740401e+00 1.823959645982309041e+01 3.258808307538740401e+00 -1.324607479546302713e+01 -1.926505153403433468e+01 1.823959645982309041e+01 -1.926505153403433468e+01 -1.072070238457035458e+02
-9.994798166452928001e+01 -1.996708337374835907e+01 2.043534548017831298e+01 -1.996708337374835907e+01 -9.310763021510680915e+01 -1.843821517229873308e+01 2.043534548017831298e+01 -1.843821517229873308e+01 -3.233931332769746803e+01
-6.766951349377407610e+01 -2.795167728591599676e+00 -8.565526595458205605e+00 -2.795167728591599676e+00 -4.198811898903558415e+01 -2.361408917452360612e+01 -8.565526595458205605e+00 -2.361408917452360612e+01 -5.359397778921344724e+01
-5.836913122139188914e+01 -3.722757961073638455e+01 -3.806895081445087925e+01 -3.722757961073638455e+01 -4.536036338039976812e+01 2.549024512569979350e+01 -3.806895081445087925e+01 2.549024512569979350e+01 -9.661884219727890866e+01
-2.203733384323501454e+01 -3.279494709129663477e+01 3.148275685673131719e+01 -3.279494709129663477e+01 -8.154972154264396522e+01 2.073570389066664924e-02 3.148275685673131719e+01 2.073570389066664924e-02 -3.100649399655507921e+01
-5.385740465051903669e+01 3.849817805664607739e+00 -2.378118125913517389e+01 3.849817805664607739e+00 3.184237576676772097e+00 1.407584419472605219e+01 -2.378118125913517389e+01 1.407584419472605219e+01 -1.723791744023901273e+01
-1.000509580024716030e+02 2.901732602537455818e+01 1.508060756769728528e+01 2.901732602537455818e+01 -1.059119750874637162e+02 9.882027156002967105e-01 1.508060756769728528e+01 9.882027156002967105e-01 -8.174158453656590950e+01
-3.899322394326566155e+01 -1.555862518875327360e+01 -4.077597222431201374e+00 -1.555862518875327360e+01 -3.859746395863781032e+01 -1.813499446061438647e+01 -4.077597222431201374e+00 -1.813499446061438647e+01 -5.284664700508945856e+01
-1.061302804635475496e+02 1.477343425223797091e+01 -1.781738024483895799e+01 1.477343425223797091e+01 -7.959138842994644847e+01 1.156403244163804800e+00 -1.781738024483895799e+01 1.156403244163804800e+00 -5.671048616918428564e+01
-1.228804381294967527e+02 1.574743493573571795e+00 -1.534431881945141107e+01 1.574743493573571795e+00 -8.197635250975825727e+01 -9.412549024715096024e+00 -1.534431881945141107e+01 -9.412549024715096024e+00 -5.030302870240234370e+01
-1.261742877316423801e+02 -1.543489878531298842e+01 1.408573386252885307e+01 -1.543489878531298842e+01 -9.721947330142928934e+01 2.642972714940765400e+01 1.408573386252885307e+01 2.642972714940765400e+01 -6.354664085598859913e+01
-1.474685766807537277e+02 -1.189496853403204746e+01 7.011235476576678671e+00 -1.189496853403204746e+01 -1.323720814467425839e+02 9.452021779337858476e+00 7.011235476576678671e+00 9.452021779337858476e+00 -7.739521434344234763e+01
-1.657896508159460893e+02 -1.639317391378632394e+01 -3.396110066027326013e+01 -1.639317391378632394e+01 -9.417116994468284474e+01 1.333012718100609106e+01 -3.396110066027326013e+01 1.333012718100609106e+01 -5.636505586624829078e+01
-8.141038749271376673e+01 -1.219839985336040478e+01 -1.547348494653742135e+00 -1.219839985336040478e+01 -1.055292249673672700e+02 2.610508879763400003e+01 -1.547348494653742135e+00 2.610508879763400003e+01 -8.559545148679482907e+01
-5.140481153363364797e+01 -3.597871228903161978e+01 8.317936102781553487e+00 -3.597871228903161978e+01 -1.212694753935072782e+02 -1.626419177029156060e+01 8.317936102781553487e+00 -1.626419177029156060e+01 -4.278898139662655353e+01
-8.100709507545876420e+01 -5.359114640996538270e+01 -1.142675231315918971e+01 -5.359114640996538270e+01 -4.982801072036333068e+01 2.199147666859419203e+01 -1.142675231315918971e+01 2.199147666859419203e+01 -6.455524846193941357e+01
-5.863910401496786307e+01 3.278943518447889005e+01 -2.271249690776424046e+01 3.278943518447889005e+01 -1.043282408473152572e+02 2.628155419439583085e+00 -2.271249690776424046e+01 2.628155419439583085e+00 -1.041130234111441979e+02
-7.935543222371769900e+01 2.373676093882975735e+01 4.302010097833863256e+01 2.373676093882975735e+01 -1.367842538201971934e+02 1.016720682441285284e+01 4.302010097833863256e+01 1.016720682441285284e+01 -1.454260775952803613e+02
2.452316995791398835e+00 -1.381566694732160805e+01 -1.821720638452102303e+00 -1.381566694732160805e+01 -7.872297207155988019e+01 -3.666327563919649890e+01 -1.821720638452102303e+00 -3.666327563919649890e+01 -1.245068132813337769e+02
-5.535891244540619027e+01 4.858655951546114515e+00 -3.376440581212479231e+01 4.858655951546114515e+00 -4.570414884016635426e+01 2.094993407777790395e+01 -3.376440581212479231e+01 2.094993407777790395e+01 -6.030266188127504279e+01
-6.965874151315297524e+01 -1.899074102396394892e+01 -5.573970953960888863e+01 -1.899074102396394892e+01 -5.218054030078375405e+01 -3.193306570794086419e+00 -5.573970953960888863e+01 -3.193306570794086419e+00 -1.540217459861709131e+02
-2.366278289632289145e+01 -2.981065992079097726e-01 -9.010547177113071626e+00 -2.981065992079097726e-01 -1.104841050266672653e+02 2.769424107388998380e+01 -9.010547177113071626e+00 2.769424107388998380e+01 -1.252296808070455967e+02
-4.635044532443902909e+01 2.404326211003301950e+01 -1.082327818365274297e+01 2.404326211003301950e+01 -8.396484012843058053e+01 -3.333696737759288453e+01 -1.082327818365274297e+01 -3.333696737759288453e+01 -4.255962763023259754e+01
-1.178259679807298141e+02 -1.738759035672187636e+01 -9.158264420287578034e+00 -1.738759035672187636e+01 -1.315557520596581185e+02 1.562647010957932636e+01 -9.158264420287578034e+00 1.562647010957932636e+01 -9.585929809945604063e+01
1.847480475793256716e+01 1.915708164508542666e+01 -1.566256685085541989e+01 1.915708164508542666e+01 -7.397841677561400786e+01 3.600239252411090973e+01 -1.566256685085541989e+01 3.600239252411090973e+01 -5.069133876697339502e+01
-5.548764863194926278e+01 -5.751664931725120056e+01 -5.288473713982826396e+00 -5.751664931725120056e+01 -7.255915697686226906e+01 -3.483070864075873629e+01 -5.288473713982826396e+00 -3.483070864075873629e+01 -1.194407821480007215e+02
-8.992828403523135705e+01 5.148305315098684609e-01 -7.328664835337630024e+00 5.148305315098684609e-01 -8.024763290602176369e+01 -1.250530397835989938e+01 -7.328664835337630024e+00 -1.250530397835989938e+01 -1.247326746934527080e+02
-7.992211481039858256e+01 6.361840788387388201e+00 1.227820224700282026e+01 6.361840788387388201e+00 -1.006334499334038100e+02 4.432183325984787103e+01 1.227820224700282026e+01 4.432183325984787103e+01 -7.735250378899058887e+01
-1.313115433377586498e+02 -2.312523272353724124e+00 -5.038709813292803830e+01 -2.312523272353724124e+00 -1.137532494688188400e+01 1.215273722484601571e+01 -5.038709813292803830e+01 1.215273722484601571e+01 -9.530466727505431379e+01
-3.320359566994724787e+01 4.188049427986192796e+01 1.083855576216021355e+01 4.188049427986192796e+01 -5.340359813772380448e+01 1.085288115621930949e+01 1.083855576216021355e+01 1.085288115621930949e+01 -8.604203946028768257e+01
-7.057206980733189994e+01 1.483676090194824226e+01 1.204608076663063443e+01 1.483676090194824226e+01 -5.465000523553813139e+01 -2.212182939397405690e+01 1.204608076663063443e+01 -2.212182939397405690e+01 -1.999188437144383812e+01
-1.111249515640414387e+02 -5.580176089617095769e+00 1.428528578282477035e+01 -5.580176089617095769e+00 -7.564739570904625054e+01 -4.074175490239422004e+01 1.428528578282477035e+01 -4.074175490239422004e+01 -7.050901106491937753e+01
-7.393280484487344495e+01 -3.478823751820154797e+01 8.430583910789236413e+00 -3.478823751820154797e+01 -8.909622147026774996e+01 -6.733766130596311683e+00 8.430583910789236413e+00 -6.733766130596311683e+00 -5.074660691346412733e+01
-1.338455408399444480e+02 -1.144064622859717772e+01 -1.593979342917226560e+01 -1.144064622859717772e+01 -1.070713533827963317e+02 -6.553796627867186864e+00 -1.593979342917226560e+01 -6.553796627867186864e+00 -8.101536705616932466e+01
-1.559578469132487442e+02 1.619598776999211787e-01 5.461081970830455212e+00 1.619598776999211787e-01 -3.478164054307958253e+01 -1.144618676960082482e+01 5.461081970830455212e+00 -1.144618676960082482e+01 -5.026071472076073832e+01
-6.897287158377100980e+01 -2.974475765152202200e+01 -3.869755913223004740e+01 -2.974475765152202200e+01 -1.281922031360752214e+02 -1.105936823585760465e+01 -3.869755913223004740e+01 -1.105936823585760465e+01 -1.173111562686115974e+02
9.854861709868345088e+00 -4.474930249864478071e+01 -1.408555481044927404e+01 -4.474930249864478071e+01 -5.953310024475175766e+01 3.726117105454359812e+00 -1.408555481044927404e+01 3.726117105454359812e+00 -6.108297967917155091e+01
-1.246844996781449026e+02 -4.641112657011496889e-01 -9.995217526860679769e+00 -4.641112657011496889e-01 -5.781872839595906299e+01 1.520648986877541731e+01 -9.995217526860679769e+00 1.520648986877541731e+01 -6.164616744849224261e+01
-9.233520847035865131e+01 2.186066888493864369e+01 1.093641431668794262e+01 2.186066888493864369e+01 -3.973934414640900314e+01 -4.421737517950031560e+01 1.093641431668794262e+01 -4.421737517950031560e+01 -8.828498375177537127e+01
-1.703866100939257535e+02 -3.040461123807638444e+01 -6.312676746842162956e+00 -3.040461123807638444e+01 -1.570113522617428998e+02 -4.114983355157285416e+01 -6.312676746842162956e+00 -4.114983355157285416e+01 -1.528037507623377564e+02
-6.592107664242489307e+01 -1.870760026147537403e+01 1.339548336774141291e+01 -1.870760026147537403e+01 -1.165859300638634721e+02 1.266706042958631784e+01 1.339548336774141291e+01 1.266706042958631784e+01 -1.377061890741145511e+01
-5.838840393093320102e+01 -2.634434450398497773e+01 -1.945797248089633413e+01 -2.634434450398497773e+01 -5.955256787042400646e+01 3.166649649824670121e+01 -1.945797248089633413e+01 3.166649649824670121e+01 -9.546927731887082302e+01
-7.607265147721906828e+01 -1.546014694344127172e+01 -1.071937221331763190e+01 -1.546014694344127172e+01 -4.946297602975045749e+01 1.212625158100388845e+01 -1.071937221331763190e+01 1.212625158100388845e+01 -9.418506746114172756e+01
-5.994683264694905489e+01 3.736584569812026757e+01 -6.439381666526160508e+00 3.736584569812026757e+01 -7.520011119164988145e+01 1.672021791135639646e+01 -6.439381666526160508e+00 1.672021791135639646e+01 -1.044995272784829723e+02
-4.396494639876072341e+01 2.456953225973799704e+01 2.204249791940410930e+01 2.456953225973799704e+01 -2.409739201778671358e+01 -1.889191332778848320e+01 2.204249791940410930e+01 -1.889191332778848320e+01 -7.471236849276456837e+01
-1.120320044687835406e+02 -8.729487517734822788e+00 2.286264007571937285e+01 -8.729487517734822788e+00 -1.188546303301202016e+02 5.571031040525444844e+00 2.286264007571937285e+01 5.571031040525444844e+00 -1.015340535609926746e+02
-2.155929771791144844e+01 -2.463409887398605136e+01 -1.780992874081437805e+01 -2.463409887398605136e+01 -5.746887490943759502e+01 1.877686990279326507e+00 -1.780992874081437805e+01 1.877686990279326507e+00 -6.387060468964016025e+01
-1.059608809957471180e+02 -2.635367773241766187e+00 -1.048735321476149984e+01 -2.635367773241766187e+00 -1.067396916781755465e+02 1.248895760201303773e+00 -1.048735321476149984e+01 1.248895760201303773e+00 -4.270584112546355726e+01
-5.895573512676619288e+01 -2.444477043355411894e+01 -5.421980526103443765e+01 -2.444477043355411894e+01 -7.480666597505884852e+01 3.235169492855381179e+01 -5.421980526103443765e+01 3.235169492855381179e+01 -6.011516700621949383e+01
-1.200451790218528885e+02 9.630490573962489975e+00 -6.011041405280423078e+00 9.630490573962489975e+00 -1.097615272198010956e+02 7.983964239787955997e+00 -6.011041405280423078e+00 7.983964239787955997e+00 -1.114925355689539828e+02
-9.769577539198746763e+01 3.877332516599415868e+01 -3.420396474635985840e+01 3.877332516599415868e+01 -1.242881121919093061e+02 -2.923096274892177160e+00 -3.420396474635985840e+01 -2.923096274892177160e+00 -1.094238382842856225e+02
-6.086653104807813719e+01 -2.282067949271301188e+01 1.042083281117256455e+01 -2.282067949271301188e+01 -1.383486043492191584e+02 -1.309910727286182386e+01 1.042083281117256455e+01 -1.309910727286182386e+01 -1.019461271323231841e+02
-9.256914378741275584e+01 -6.760380694290389236e+00 -1.156538697115025549e+01 -6.760380694290389236e+00 -1.254909978080600155e+02 -2.318049153289147846e+00 -1.156538697115025549e+01 -2.318049153289147846e+00 -1.493931375114606226e+02
-1.384671377909377554e+02 4.096178289211268009e+01 -3.219665960051522546e+01 4.096178289211268009e+01 -8.132406483075249071e+01 1.880689947928370387e+01 -3.219665960051522546e+01 1.880689947928370387e+01 -8.641482369965629573e+01
-6.516873052204741157e+01 -2.003427986752512524e+01 3.476686020413828970e+01 -2.003427986752512524e+01 -3.916967720554153942e+01 2.576134598193193881e+01 3.476686020413828970e+01 2.576134598193193881e+01 -6.655010071787924630e+01
-9.895321505700437115e+01 2.402898930237721586e+01 -3.529598165369326068e+01 2.402898930237721586e+01 -8.964266919035867431e+01 -1.348027019417634342e+01 -3.529598165369326068e+01 -1.348027019417634342e+01 -3.994996950663945512e+01
-8.167684000925990517e+01 -2.400828323843451528e+01 -2.027848483034470917e+01 -2.400828323843451528e+01 -4.083179331793813560e+01 -4.668681048275516332e+00 -2.027848483034470917e+01 -4.668681048275516332e+00 -9.658916313124632325e+01
-4.391690505995681093e+01 -2.163236030880540284e+01 1.963028907670274137e+01 -2.163236030880540284e+01 5.199371088930988094e+01 2.683615133350840765e+01 1.963028907670274137e+01 2.683615133350840765e+01 -4.432171565299091753e+01
-3.018866722712564510e+01 1.616831810474703701e+01 -2.987516864418369522e+01 1.616831810474703701e+01 -6.644848550785315666e+00 3.642938795367471982e+01 -2.987516864418369522e+01 3.642938795367471982e+01 -2.883782599823678083e+01
-8.077222202487156721e+01 2.543253820382303232e+01 4.425585882222190515e-01 2.543253820382303232e+01 -4.210012269814263419e+01 1.562525689880123814e+01 4.425585882222190515e-01 1.562525689880123814e+01 -9.132297221901505679e+01
-1.432161780071678834e+02 -2.160432863839232809e+01 2.225949511685948323e+01 -2.160432863839232809e+01 -9.642550590534834498e+01 -2.316954287719461547e+01 2.225949511685948323e+01 -2.316954287719461547e+01 -1.329003156258030458e+02
-6.702131176441618265e+01 -8.923186657627915963e+00 -3.215848696664133399e+01 -8.923186657627915963e+00 -8.088337057755192916e+01 6.058411137411207292e+00 -3.215848696664133399e+01 6.058411137411207292e+00 -1.008107437825472061e+02
-8.130478210668225358e+01 6.112656248416018911e+01 -4.382892482159299163e+01 6.112656248416018911e+01 -5.658280224148271031e+01 2.982308928126587233e+01 -4.382892482159299163e+01 2.982308928126587233e+01 -7.163565175835495324e+01
-8.780062802855734105e+01 3.828981427916584579e+00 -1.826189428910377899e+01 3.828981427916584579e+00 -9.059847658176610707e+01 3.582267024166156233e+01 -1.826189428910377899e+01 3.582267024166156233e+01 -6.486666857417382914e+01
-6.847377066701486115e+01 1.416881758109906642e+01 -1.379148857384573112e+01 1.416881758109906642e+01 -6.981584292443429263e+01 3.521270749582389925e+01 -1.379148857384573112e+01 3.521270749582389925e+01 -9.331405015442638273e+01
-5.376570989262856415e+01 -1.174640467691707535e+01 3.856314605051073130e+01 -1.174640467691707535e+01 -2.003752806039934953e+01 4.633314998008736474e+00 3.856314605051073130e+01 4.633314998008736474e+00 5.300013428644181346e-01
8.780641967921148705e+00 -3.858407367692392143e+01 -5.947553956839705336e+00 -3.858407367692392143e+01 -1.088287700581467590e+02 -8.862897708971676280e+00 -5.947553956839705336e+00 -8.862897708971676280e+00 -1.124593818103025598e+02
-1.323315824241098255e+02 7.555144209477860917e-01 -1.551194779286118575e+01 7.555144209477860917e-01 -9.432125244089012028e+01 2.266123790662041415e+01 -1.551194779286118575e+01 2.266123790662041415e+01 -1.353746861893135360e+02
-1.246606638535148903e+02 1.422145163601826390e+01 -1.998817091956356151e+01 1.422145163601826390e+01 -1.219851601425605168e+02 6.769814402313346413e+00 -1.998817091956356151e+01 6.769814402313346413e+00 -1.096248760367941912e+02
-5.833987810113062977e+01 1.992760021218405342e+01 2.592178799234894626e+01 1.992760021218405342e+01 -1.137678803710468571e+02 3.668393568034840513e+01 2.592178799234894626e+01 3.668393568034840513e+01 -1.267440695935095647e+02
-6.380968785901340112e+01 1.496237772636342278e+01 3.179724643142784757e+01 1.496237772636342278e+01 -5.696225777122792522e+01 2.728589396343895412e+00 3.179724643142784757e+01 2.728589396343895412e+00 -8.835253237584076658e+01
1.484305706245367773e+01 -1.930765176496861812e+01 -6.017839418554852493e+00 -1.930765176496861812e+01 -8.245591638917089483e+01 2.655116407087490771e+01 -6.017839418554852493e+00 2.655116407087490771e+01 -2.163911564488593342e+01
-1.585499293541408292e+02 -1.621086072235667697e+00 2.281721001454112052e+00 -1.621086072235667697e+00 -6.390928816178693239e+01 -4.399368737981620825e+01 2.281721001454112052e+00 -4.399368737981620825e+01 -1.062516579311087241e+02
-1.438452763247556732e+02 3.274700485396380145e+01 -3.247557397778771726e+00 3.274700485396380145e+01 -8.693799108783670704e+01 6.913961140076801293e+00 -3.247557397778771726e+00 6.913961140076801293e+00 -9.049930903374071534e+01
-1.338421258029065655e+02 2.633480258301124266e+01 1.392891744723737624e+01 2.633480258301124266e+01 -1.273239808720737472e+02 2.057165499278567111e+01 1.392891744723737624e+01 2.057165499278567111e+01 -9.975136649067047756e+01
-1.634583432627746049e+02 1.159774339590106429e+01 1.040280189161688185e+01 1.159774339590106429e+01 -1.586863205572165612e+02 -1.848409558648797457e+01 1.040280189161688185e+01 -1.848409558648797457e+01 -8.756842311618218844e+01
-1.020039061402778202e+02 -3.828599206310120451e+01 3.730269588084987475e+01 -3.828599206310120451e+01 -1.025557994400474655e+02 -6.850645276156603458e+00 3.730269588084987475e+01 -6.850645276156603458e+00 -7.430918379310396915e+01
-7.590276056559896745e+01 2.368538866703772428e+01 1.338124180141264574e+01 2.368538866703772428e+01 -7.319465458859539808e+01 7.314414564471182878e+00 1.338124180141264574e+01 7.314414564471182878e+00 -1.707607849331643024e+01
-7.589955453390788875e+01 1.342087840709112534e+01 -1.590572456103262766e+01 1.342087840709112534e+01 -1.036456473271222620e+02 -7.447021892775482321e+00 -1.590572456103262766e+01 -7.447021892775482321e+00 -4.948418545465697349e+01
-9.782943580735337719e+01 -3.790845061396301396e+00 -7.293775124361511430e+00 -3.790845061396301396e+00 -1.460973998917450558e+02 2.047864252843297095e+01 -7.293775124361511430e+00 2.047864252843297095e+01 -9.351175607984090732e+01
-5.144157898507074123e+01 9.545932729219577695e+00 6.237614362214185526e+00 9.545932729219577695e+00 -6.440742226952151839e+01 2.020059742164018601e+01 6.237614362214185526e+00 2.020059742164018601e+01 -8.175996719479253727e+01
-1.170083416068032420e+02 -7.231009361670191815e+00 6.710168158617849876e+00 -7.231009361670191815e+00 -6.119031383088745457e+01 -1.315295508663969137e+01 6.710168158617849876e+00 -1.315295508663969137e+01 -9.565624355284738556e+01
-5.758667912324946059e+01 1.871200109639589115e+01 4.081845971601988055e+01 1.871200109639589115e+01 -7.210294103539004595e+01 -2.756781871348252366e+01 4.081845971601988055e+01 -2.756781871348252366e+01 -2.783261622603767549e+01
-7.925399721767696803e+01 -8.172372625381989053e+00 8.296124750546661986e+00 -8.172372625381989053e+00 -1.507226266485580091e+01 1.355306208851008876e+01 8.296124750546661986e+00 1.355306208851008876e+01 -4.834193365317123181e+01
-7.245106893041392482e+01 6.191628550312676005e+00 3.487188461301124587e+00 6.191628550312676005e+00 -5.140829344040078297e+01 -3.056313901841377856e+01 3.487188461301124587e+00 -3.056313901841377856e+01 -5.385410540248275879e+01
-7.788537129954954708e+01 1.830379552893944251e+01 7.877392410948945489e+00 1.830379552893944251e+01 -3.652621508981390974e+01 -6.862723168615843861e+00 7.877392410948945489e+00 -6.862723168615843861e+00 -2.063981015557209986e+01
-4.438451680195238680e+01 -2.353405424119519029e+00 1.038132296086710404e+01 -2.353405424119519029e+00 -7.767855372358374666e+01 5.726294504333917512e-01 1.038132296086710404e+01 5.726294504333917512e-01 -9.089765237705212542e+01
-1.478493337933180669e+02 7.650747804227394866e+00 3.269346021863869112e+01 7.650747804227394866e+00 -1.080426332201397486e+02 -2.076540983229079629e+01 3.269346021863869112e+01 -2.076540983229079629e+01 -7.897615716901810856e+01
-2.200426750739882564e+01 1.788216656424155948e+00 6.270680201025286493e+01 1.788216656424155948e+00 -1.149747053612164791e+02 1.814708664739994504e+01 6.270680201025286493e+01 1.814708664739994504e+01 -1.363560747719547521e+02
-6.361618254210518586e+01 1.583653398765162201e+01 9.310602524054949924e+00 1.583653398765162201e+01 -7.118305448608501251e+01 2.538967531039270753e+01 9.310602524054949924e+00 2.538967531039270753e+01 -1.201026919504844557e+02
-1.005187008941117597e+02 7.693263417585606945e+00 2.123433952122713464e+01 7.693263417585606945e+00 -5.543289661855916250e+01 1.367470152147277318e+01 2.123433952122713464e+01 1.367470152147277318e+01 -6.207870174609096381e+01
-3.640602788462894779e+01 1.438918711175143628e+01 -4.576871895026305026e+01 1.438918711175143628e+01 -9.802773505569668089e+01 -1.722202530588562652e+01 -4.576871895026305026e+01 -1.722202530588562652e+01 -7.072103992224320734e+01
-7.667937444597949082e+01 -1.669106683352125486e+01 -3.372049757242664469e+01 -1.669106683352125486e+01 -5.508024427374530774e+01 -2.804216348994933483e+01 -3.372049757242664469e+01 -2.804216348994933483e+01 -6.392037924837011076e+01
-1.757657636140921511e+02 -3.586519818301844253e+01 8.388829375958584578e+00 -3.586519818301844253e+01 -8.134820728104871534e+01 2.660654212369454541e+01 8.388829375958584578e+00 2.660654212369454541e+01 -9.890648962824066359e+01
-7.399962009517210504e+01 1.162765162907545857e+01 -2.226860264191902772e+01 1.162765162907545857e+01 -3.540684252935430720e+01 7.854987214716979693e+00 -2.226860264191902772e+01 7.854987214716979693e+00 -1.141509470518778357e+02
-1.464716000347980298e+02 2.019013499548383450e+01 -3.065269037591328072e+01 2.019013499548383450e+01 -5.945081204495578220e+01 -1.961409294487381771e+01 -3.065269037591328072e+01 -1.961409294487381771e+01 -8.122105563878292855e+01
-5.459149036491256624e+01 1.504093781284005260e+01 1.775095610425997350e+01 1.504093781284005260e+01 -4.993944966000097452e+01 -5.550832734857658579e+01 1.775095610425997350e+01 -5.550832734857658579e+01 -1.129678328557455700e+02
-6.964933219456318625e+01 1.505395266850815794e+01 -2.002911302403719418e+01 1.505395266850815794e+01 -1.493088750692570557e+02 5.358272634638340293e+01 -2.002911302403719418e+01 5.358272634638340293e+01 -4.744957867607818969e+01
-1.418191743786500467e+02 -2.669667669457906456e+00 -3.184051862300814495e+00 -2.669667669457906456e+00 -6.933459874263557765e+01 -2.891873635843533208e+01 -3.184051862300814495e+00 -2.891873635843533208e+01 -8.136355701013330588e+01
-4.613855436347753169e+01 -3.012989685718325461e+01 8.817693913052870869e+00 -3.012989685718325461e+01 -2.779774440965406512e+01 2.014432698934250610e+01 8.817693913052870869e+00 2.014432698934250610e+01 -1.095671152717633703e+02
-1.006550413953170420e+02 -1.019083207327349960e+01 -2.089428148742505797e+01 -1.019083207327349960e+01 -9.383317025082702401e+01 4.618096454355265479e+01 -2.089428148742505797e+01 4.618096454355265479e+01 -3.889137162055664021e+01
-2.478028702972372344e+01 -1.796348084154503510e+01 -1.513508247369803428e+01 -1.796348084154503510e+01 -6.318762560080621427e+01 -2.691942159808065682e+01 -1.513508247369803428e+01 -2.691942159808065682e+01 -6.502985570278411842e+00
-5.272547443537905565e+01 -3.118867483207015567e+00 -2.211383919828826095e+01 -3.118867483207015567e+00 -3.646996203113399559e+01 -6.357411081953469711e+00 -2.211383919828826095e+01 -6.357411081953469711e+00 -8.941829708157293055e+01
-9.095654521091954336e+01 2.461242762520241811e+01 -3.369629688281966651e+01 2.461242762520241811e+01 -5.228709627153789796e+01 6.395950991491932136e+00 -3.369629688281966651e+01 6.395950991491932136e+00 -4.943855393362998996e+01
-8.591816470539681916e+01 -6.204675559340044444e+00 3.020180943640584559e+01 -6.204675559340044444e+00 -9.131270207701874142e+01 2.100325136582519647e+01 3.020180943640584559e+01 2.100325136582519647e+01 -1.232317893557590622e+02
-7.290682579229385851e+01 1.867424171510177544e+01 -1.019123348378193938e+01 1.867424171510177544e+01 -7.368029483345462438e+01 -3.560558050767447913e+00 -1.019123348378193938e+01 -3.560558050767447913e+00 -1.355846671105139194e+02
-8.226939161566637893e+01 -2.327173988774563540e+01 -1.349277538137208055e+01 -2.327173988774563540e+01 -1.009092678885512697e+02 1.575825059799563554e+01 -1.349277538137208055e+01 1.575825059799563554e+01 -8.539935287945311870e+01
-1.587970222183454894e+02 -1.040723591445011742e+01 -2.355174436722486320e+01 -1.040723591445011742e+01 -1.167496392566044676e+02 2.126766922504600643e+01 -2.355174436722486320e+01 2.126766922504600643e+01 -9.411229956984681166e+01
-1.358685191088728459e+02 4.407787778710849480e+00 -3.721136370598772558e+00 4.407787778710849480e+00 -7.966695880470133773e+01 2.554374208077570074e+01 -3.721136370598772558e+00 2.554374208077570074e+01 -5.870422366891605037e+01
-1.284111880568378012e+02 -1.089268984241197735e+01 3.418759993407982734e+01 -1.089268984241197735e+01 -8.944948519987211455e+01 -7.782825734723648026e+00 3.418759993407982734e+01 -7.782825734723648026e+00 -8.266623021781852287e+01
-1.414009429238146822e+02 1.673369259710302970e+01 -1.178587233940550938e+01 1.673369259710302970e+01 -1.303645116860884627e+02 6.416156678935053037e+00 -1.178587233940550938e+01 6.416156678935053037e+00 -1.246036821841245654e+02
-7.959314892135185460e+01 -3.006700581454258625e+01 -6.268647853000521408e+00 -3.006700581454258625e+01 -7.084496903449208105e+01 2.413186623385982088e+01 -6.268647853000521408e+00 2.413186623385982088e+01 -4.687408256320927080e+01