-7.785161932062210690e+04
-7.784804925567797909e+04
-7.787116527280824084e+04
-7.785214594659286377e+04
-7.785041296357254032e+04
-7.786735877958123456e+04
-7.784797736774632358e+04
-7.782068337020238687e+04
-7.783960175570211140e+04
-7.782255463967409742e+04
-7.783608952202626097e+04
-7.785553391467095935e+04
-7.788424968379625352e+04
-7.782817283386510098e+04
-7.788231773307197727e+04
-7.783811092883907259e+04
-7.786525701204572397e+04
-7.781743524746723415e+04
-7.787066620858664101e+04
-7.782293188125392771e+04
-7.787184986941239913e+04
-7.788741064548538998e+04
-7.783821686045645038e+04
-7.782032475048536435e+04
-7.781655469412710227e+04
-7.786674617862381274e+04
-7.785398975570214679e+04
-7.782134233658612357e+04
-7.782709376978231012e+04
-7.782222661003324902e+04
-7.785162230380703113e+04
-7.788884912679364788e+04
-7.785740330817825452e+04
-7.788583777891169302e+04
-7.788250549066967505e+04
-7.788866057258076034e+04
-7.782725056965457043e+04
-7.781900711519893957e+04
-7.786465858277241932e+04
-7.788462354172112828e+04
-7.784093919832023676e+04
-7.784999641680334753e+04
-7.782473565410205629e+04
-7.784087356388667831e+04
-7.786904062216366583e+04
-7.789036869104838115e+04
-7.786911955646298884e+04
-7.786835273682831030e+04
-7.782970377516890585e+04
-7.788477434355743753e+04
-7.782424141235822754e+04
-7.786774524333045701e+04
-7.782081972977019905e+04
-7.781914186792624241e+04
-7.786799688035355939e+04
-7.785693323111615609e+04
-7.784149074488542101e+04
-7.782830501042044489e+04
-7.788597943681344623e+04
-7.783446580441453261e+04
-7.785847612885873241e+04
-7.782948279121026280e+04
-7.788980634290952003e+04
-7.783527458219515393e+04
-7.781928392442368204e+04
-7.786849554478446953e+04
-7.782510107086725475e+04
-7.787090450912174128e+04
-7.782343582811603846e+04
-7.786536812306512729e+04
-7.783574787053800537e+04
-7.783539095382647065e+04
-7.783948552583898709e+04
-7.782232629653711047e+04
-7.785277083470232901e+04
-7.784272392764460528e+04
-7.783681708224446629e+04
-7.783744192356815620e+04
-7.783461816040585109e+04
-7.788855622088989185e+04
-7.786743907910917187e+04
-7.788716847209958360e+04
-7.781828102944862621e+04
-7.785349202444990806e+04
-7.789113425418263068e+04
-7.785822097129785107e+04
-7.786876010802465316e+04
-7.783979683569393819e+04
-7.782848419923346955e+04
-7.787187870493398805e+04
-7.782925266513002862e+04
-7.785814333896992321e+04
-7.788946468256709340e+04
-7.783118548992057913e+04
-7.787270600894818199e+04
-7.788707468351715943e+04
-7.784372784724216035e+04
-7.784486210266215494e+04
-7.786709185392227664e+04
-7.781717475047780317e+04
-7.788660209589984152e+04
-7.788726856464003504e+04
-7.782715148616598162e+04
-7.785451368089315656e+04
-7.788423081304693187e+04
-7.785558361275588686e+04
-7.782802027666875802e+04
-7.784244409452749824e+04
-7.782153083025070373e+04
-7.788773200411123980e+04
-7.783746790617090301e+04
-7.785323986233158212e+04
-7.788879232051686267e+04
-7.781024136073848058e+04
-7.782038280957621464e+04
-7.784027441736705077e+04
-7.783917357916870969e+04
-7.786667670495685888e+04
-7.782049788724773680e+04
-7.786648811412062787e+04
-7.782171968860208290e+04
-7.785068605346752156e+04
-7.781518606238423672e+04
-7.788507844808184018e+04
-7.786829232155550562e+04
-7.787033280676181312e+04
-7.788926506640639855e+04
-7.786556698455152218e+04
-7.783508288079124759e+04
-7.785237094194420206e+04
-7.786559748836363724e+04
-7.785709748397380463e+04
-7.784283347674789547e+04
-7.785665124878865026e+04
-7.785886870398731844e+04
-7.784656251329563383e+04
-7.788439100850721297e+04
-7.783745580408486421e+04
-7.783998980039697199e+04
-7.788778206529737508e+04
-7.788654825394629734e+04
-7.788506411144012236e+04
-7.788482676080342208e+04
-7.786870549002030748e+04
-7.785026894042635104e+04
-7.787026647395135660e+04
-7.787146393603607430e+04
-7.788634812382383097e+04
-7.784128735289542237e+04
-7.788313790213262837e+04
-7.789086233402327343e+04
-7.788773739237392147e+04
-7.785503195058705751e+04
-7.786505166594359616e+04
-7.783992634456756059e+04
-7.788827180179259449e+04
-7.786871902900261921e+04
-7.783780557851490448e+04
-7.781818824711935304e+04
-7.781620297352242051e+04
-7.788179719493008452e+04
-7.784754727217381878e+04
-7.788627223851505551e+04
-7.785254022881957644e+04
-7.782416811015788699e+04
-7.781865125142908073e+04
-7.786512376555943047e+04
-7.788949355206001201e+04
-7.781467376002240053e+04
-7.783478758646047208e+04
-7.783768208632319875e+04
-7.789194006061066466e+04
-7.788823952857549011e+04
-7.789392712877198937e+04
-7.782499766666832147e+04
-7.783506000561021210e+04
-7.781983595042602974e+04
-7.782373566031779046e+04
-7.783933298010965518e+04
-7.782812996069989458e+04
-7.785556920359324431e+04
-7.787070720618750784e+04
-7.782033461302115757e+04
-7.785859301152701664e+04
-7.786845672407683742e+04
-7.785359581512396107e+04
-7.784134353782662947e+04
-7.781904771281119611e+04
-7.782086523460659373e+04
-7.785133875547609932e+04
-7.789126334104270791e+04
-7.782070681849429093e+04
-7.787165467447637639e+04
-7.786467022980772890e+04
-7.784991451477879309e+04
-7.787052857980292174e+04
-7.786360390232921054e+04
-7.781681727090515778e+04
-7.787142841742077144e+04
-7.788518340006159269e+04
-7.787262637273631117e+04
-7.788519140918029007e+04
-7.789004046610032674e+04
-7.782143687091862375e+04
-7.784025307189075102e+04
-7.783932700218222453e+04
-7.786803091004955058e+04
-7.783966384958273557e+04
-7.783499163415833027e+04
-7.785481492066815554e+04
-7.782824494597149896e+04
-7.788928069792542374e+04
-7.787135357635471155e+04
-7.786739082346447685e+04
-7.788258073683931434e+04
-7.782858460271258082e+04
-7.786927724832935201e+04
-7.781764914619717456e+04
-7.784610331490747922e+04
-7.785230509389059443e+04
-7.788584595583712508e+04
-7.785592768293319386e+04
-7.788837380355776986e+04
-7.782422273409731861e+04
-7.785573673479627178e+04
-7.783967272016640345e+04
-7.787262446581428230e+04
-7.781796662214460957e+04
-7.788711771510638937e+04
-7.781867875363223720e+04
-7.782391961143365188e+04
-7.782827892157164752e+04
-7.785716780088430096e+04
-7.785255853751570976e+04
-7.786936826118368481e+04
-7.784028823224735970e+04
-7.788489194492223032e+04
-7.786445089619119244e+04
-7.782265953664806148e+04
-7.786465460975830501e+04
-7.783773671118450875e+04
-7.785862860491313040e+04
-7.783580048287862155e+04
-7.781970065707311733e+04
-7.783783569945883937e+04
-7.784163101956165337e+04
-7.783860701520508155e+04
-7.788691690131956420e+04
-7.786531072025182948e+04
-7.786795772286501597e+04
-7.786935264840800664e+04
-7.782522751447407063e+04
-7.783056009173898201e+04
-7.782003413837237167e+04
-7.786667037773426273e+04
-7.783516648260664078e+04
-7.788933891679701628e+04
-7.789160694918761146e+04
-7.785415759607549990e+04
-7.789093517537649313e+04
-7.785089603175007505e+04
-7.783618545252519834e+04
-7.783134931362395582e+04
-7.785057797473970277e+04
-7.783754023756642709e+04
-7.783706790034615551e+04
-7.785166153226014285e+04
-7.785572690633774619e+04
-7.782671591878971958e+04
-7.786879789410253579e+04
-7.788640968044582405e+04
-7.781681812980503310e+04
-7.788731849831787986e+04
-7.787078546601111884e+04
-7.786786157258640742e+04
-7.782469432899772073e+04
-7.785614590703215799e+04
-7.788457583247213915e+04
-7.786839511659402342e+04
-7.785608357652460109e+04
-7.786868173432553886e+04
-7.785214350881471182e+04
-7.786718404438400466e+04
-7.788941865853394847e+04
-7.785082973187837342e+04
-7.784751477211419842e+04
-7.781331985356380756e+04
-7.781917881713931274e+04
-7.782143412724013615e+04
-7.788692818760697264e+04
-7.782408152259999770e+04
-7.781771291405838565e+04
-7.788376068595630932e+04
-7.785448674579386716e+04
-7.785159903973128530e+04
-7.783666098796312872e+04
-7.785541925102712412e+04
-7.785563302435907826e+04
-7.787307161531588645e+04
-7.786661335363946273e+04
-7.788663177867024206e+04
-7.782110108774069522e+04
-7.787010251701375819e+04
-7.788867770835412375e+04
-7.783878548712251359e+04
-7.785049392450397136e+04
-7.788740890931672766e+04
-7.783939369577929028e+04
-7.785801076917510363e+04
-7.785333854287957365e+04
-7.783102276544374763e+04
-7.786729818962213176e+04
-7.785205954218743136e+04
-7.787224560384478536e+04
-7.786730817775025207e+04
-7.788738838711741846e+04
-7.786438310214896046e+04
-7.781654236175476399e+04
-7.781906060856103431e+04
-7.783670196543019847e+04
-7.782167932504060445e+04
-7.785165598851485993e+04
-7.783900634045292099e+04
-7.782655655688435945e+04
-7.788857985666995228e+04
-7.786737834395261598e+04
-7.788705480183064356e+04
-7.788810916388855549e+04
-7.784157922981004231e+04
-7.788489864891448815e+04
-7.785131614510768850e+04
-7.785355172755409149e+04
-7.783526723093249893e+04
-7.785438882247170841e+04
-7.783476027104021341e+04
-7.786577792720042635e+04
-7.785463369244679052e+04
-7.788985388053543284e+04
-7.788847980567338527e+04
-7.783021373402036261e+04
-7.786961162362800678e+04
-7.781151061511949229e+04
-7.785676465890582767e+04
-7.783598182299167092e+04
-7.784954914678266505e+04
-7.784391212860619999e+04
-7.784864138002018444e+04
-7.786777194052693085e+04
-7.783965144751661865e+04
-7.786798239580540394e+04
-7.784097614784052712e+04
-7.784957134443742689e+04
-7.784608451387313835e+04
-7.781507757489483629e+04
-7.785203184401479666e+04
-7.784688409636711003e+04
-7.788316343399163452e+04
-7.786815083271320327e+04
-7.783863018370349891e+04
-7.788661672733788146e+04
-7.782263494495797204e+04
-7.784258660430015880e+04
-7.785751887768680172e+04
-7.786979619810615259e+04
-7.786643894913487020e+04
-7.789043337281828281e+04
-7.783226109382761933e+04
-7.788929091674111260e+04
-7.788750037523976061e+04
-7.785997837356803939e+04
-7.785788774346835271e+04
-7.782541661383128667e+04
-7.782360557172347035e+04
-7.785783879713136412e+04
-7.786462872967355361e+04
-7.783737700643636344e+04
-7.789182949395031028e+04
-7.784099839453698951e+04
-7.782284270079823909e+04
-7.785559904505555460e+04
-7.786821384237617895e+04
-7.783401024468621472e+04
-7.782320907086484658e+04
-7.785570499751910393e+04
-7.784329939225784619e+04
-7.788885117327960324e+04
-7.782318581929751963e+04
-7.785415486853767652e+04
-7.788769048741490406e+04
-7.788606138553438359e+04
-7.785637221411426435e+04
-7.782710559617982653e+04
-7.781289999926598102e+04
-7.785760574870932032e+04
-7.782195977354735078e+04
-7.788277460750089085e+04
-7.788533583569388429e+04
-7.788953225390742591e+04
-7.784101902497684932e+04
-7.789096685208885174e+04
-7.783932198715166305e+04
-7.786758584501540463e+04
-7.782591352539269428e+04
-7.784006484168197494e+04
-7.781895265444215329e+04
-7.782332201627358154e+04
-7.786897825322794961e+04
-7.788681862895844097e+04
-7.781837258826277684e+04
-7.784220480971837242e+04
-7.786626977061096113e+04
-7.783013493672588083e+04
-7.785437029502766381e+04
-7.784027047561117797e+04
-7.786733373381233832e+04
-7.787193559693889983e+04
-7.785464798993282602e+04
-7.785257720370493189e+04
-7.788785355005078600e+04
-7.786709313667954120e+04
-7.785372154686876456e+04
-7.786523998722167744e+04
-7.784082438552225358e+04
-7.786440538702640333e+04
-7.782039472728436522e+04
-7.784130389444522734e+04
-7.788767430671506736e+04
-7.782129503152135294e+04
-7.782263370594296430e+04
-7.785425473845865054e+04
-7.785248776132662897e+04
-7.788743819007552520e+04
-7.788341290586450486e+04
-7.786834663817218097e+04
-7.785124632731785823e+04
-7.784043713931301318e+04
-7.788757185564856627e+04
-7.785498389348779165e+04
-7.788899469120752474e+04
-7.786915091589698568e+04
-7.788880483306694077e+04
-7.783946998284399160e+04
-7.784229689547004818e+04
-7.789251325213449309e+04
-7.786993682131670357e+04
-7.785047318467144214e+04
-7.782384584271421772e+04
-7.786493261107162107e+04
-7.784114305781251460e+04
-7.786752213765933993e+04
