3.141792073076753695e+02 4.986554875492753069e+01 -2.690344317903848292e+01 4.986554875492753069e+01 3.327088334800064331e+02 2.569849615220385175e+01 -2.690344317903848292e+01 2.569849615220385175e+01 3.210181118079921703e+02
3.522904450316536895e+02 -1.450143288814817666e+01 8.643142136553795041e+00 -1.450143288814817666e+01 3.606165580411865790e+02 -9.833248329567320312e+00 8.643142136553795041e+00 -9.833248329567320312e+00 3.517460595010192606e+02
2.791554282820364961e+02 -9.175549467392741576e+00 -2.474488996549107256e+01 -9.175549467392741576e+00 2.623711991320744801e+02 -1.423041836268051874e+01 -2.474488996549107256e+01 -1.423041836268051874e+01 2.932547664867707908e+02
3.702822430889296470e+02 -1.185268670127639545e+01 7.242221224154857251e-02 -1.185268670127639545e+01 3.861207319921908265e+02 4.146508714434403942e+00 7.242221224154857251e-02 4.146508714434403942e+00 3.268247382124294518e+02
2.836411863826889999e+02 1.032590569201494723e+01 -2.019648013327821445e+01 1.032590569201494723e+01 2.709698434324855612e+02 2.939345813342014324e+01 -2.019648013327821445e+01 2.939345813342014324e+01 3.491369758612860892e+02
2.385899680626822601e+02 8.801403796118821177e+00 9.654816822044897107e-01 8.801403796118821177e+00 2.191753430402090146e+02 -4.345237871746695291e+00 9.654816822044897107e-01 -4.345237871746695291e+00 1.960948118764461867e+02
4.118527024339506966e+02 7.119653081324655908e+00 -4.819946807844027958e+00 7.119653081324655908e+00 4.379257030384294467e+02 3.385298484496802818e+00 -4.819946807844027958e+00 3.385298484496802818e+00 3.394339066968772158e+02
4.551025086380846005e+02 3.188981329715769419e+00 -7.326604052258313793e+00 3.188981329715769419e+00 4.590770183272401823e+02 3.910871350111675326e+01 -7.326604052258313793e+00 3.910871350111675326e+01 4.911058428848946278e+02
4.288659668518685635e+02 -6.434788795583335386e+00 2.606915959508774350e+01 -6.434788795583335386e+00 3.837047877051745104e+02 -2.999734869815954941e+00 2.606915959508774350e+01 -2.999734869815954941e+00 4.204449863214946390e+02
4.807664296984478938e+02 -2.139154839354225679e+00 -2.799058822293567061e+01 -2.139154839354225679e+00 4.907454394134755944e+02 -2.332661103292889848e+01 -2.799058822293567061e+01 -2.332661103292889848e+01 5.111155838354617913e+02
3.403508629202747784e+02 -3.762551611820421726e+01 1.144061740045744635e+01 -3.762551611820421726e+01 4.684080259259301897e+02 -1.844405819240749267e+01 1.144061740045744635e+01 -1.844405819240749267e+01 4.411410102174732515e+02
3.509074174408062277e+02 -3.863968539098560484e+01 2.292838986218492536e+01 -3.863968539098560484e+01 3.112917966243311980e+02 2.713366876032715425e+00 2.292838986218492536e+01 2.713366876032715425e+00 3.553757397182211548e+02
2.041917245177650955e+02 7.814042821970226704e+00 -1.142374108531454446e+01 7.814042821970226704e+00 1.665702997852180829e+02 -5.713799700014169147e+00 -1.142374108531454446e+01 -5.713799700014169147e+00 1.966007598484605694e+02
4.713822204761763714e+02 4.330510531672423724e+01 2.925884225449699283e+00 4.330510531672423724e+01 4.946265081733402553e+02 -3.445710295935722911e+01 2.925884225449699283e+00 -3.445710295935722911e+01 5.087887692320334736e+02
1.665693312784715943e+02 8.402634232165457462e+00 -1.944155265829687895e+00 8.402634232165457462e+00 1.674026263998251238e+02 -2.670095148257793483e+01 -1.944155265829687895e+00 -2.670095148257793483e+01 1.753644850965253283e+02
3.952912037163021637e+02 -3.859518331239398492e+01 9.247833680581987181e+00 -3.859518331239398492e+01 4.232742430343845967e+02 -1.144950163982145774e+01 9.247833680581987181e+00 -1.144950163982145774e+01 4.015137271158867520e+02
2.517846538448860940e+02 4.940685264115644237e+00 -5.490353071991566303e+00 4.940685264115644237e+00 2.692502364978836908e+02 6.533827274005382435e+00 -5.490353071991566303e+00 6.533827274005382435e+00 2.618875396601243892e+02
4.744765889669992021e+02 -3.476050246842319780e+01 -4.046918500325706702e+01 -3.476050246842319780e+01 4.993444189844420862e+02 -1.172508314488406178e+01 -4.046918500325706702e+01 -1.172508314488406178e+01 5.418336672212936946e+02
2.909288900746760760e+02 -9.862695516742556734e+00 1.795881758023095998e+01 -9.862695516742556734e+00 2.293820370920805942e+02 -8.661279711999771536e+00 1.795881758023095998e+01 -8.661279711999771536e+00 2.400555497623941505e+02
4.680523498967125988e+02 9.834979972751987987e+00 -2.486618876366984310e+01 9.834979972751987987e+00 4.555412125966854546e+02 1.440598403853254972e+01 -2.486618876366984310e+01 1.440598403853254972e+01 4.704249086705399918e+02
2.191706515623573921e+02 -6.777738097414676588e+00 5.281130588392279890e+00 -6.777738097414676588e+00 2.542329320927322556e+02 -3.047083772318822170e+01 5.281130588392279890e+00 -3.047083772318822170e+01 2.789223410829410454e+02
1.733308828007403974e+02 5.692422660929640443e+00 -8.982601627072224204e+00 5.692422660929640443e+00 1.747875148542078705e+02 1.141039540890528237e+01 -8.982601627072224204e+00 1.141039540890528237e+01 1.738880695826665317e+02
3.744844666415891652e+02 3.358995078023270509e+01 2.702039746821237642e+01 3.358995078023270509e+01 4.113028618856796470e+02 2.356307688323064031e+00 2.702039746821237642e+01 2.356307688323064031e+00 4.235237963447517586e+02
5.179946173976020418e+02 -5.642506592334470383e+00 5.269536613299018057e+01 -5.642506592334470383e+00 5.238952683735341225e+02 -1.676075105507715790e+01 5.269536613299018057e+01 -1.676075105507715790e+01 5.044765500121441164e+02
4.783746586241952627e+02 1.375809600290561363e+01 2.407029616930300620e+01 1.375809600290561363e+01 4.994156845396393010e+02 7.854711827746254649e+00 2.407029616930300620e+01 7.854711827746254649e+00 5.353896777846963460e+02
2.091606180362875875e+02 2.017167091362982489e+01 -3.998072370129380992e+00 2.017167091362982489e+01 2.750880633336409460e+02 3.401723526274358367e+00 -3.998072370129380992e+00 3.401723526274358367e+00 2.894020016721294724e+02
2.952157057739879633e+02 -3.930000214033345429e+01 -1.136334306628604551e+01 -3.930000214033345429e+01 3.575444893653180998e+02 -4.916890898679027622e+00 -1.136334306628604551e+01 -4.916890898679027622e+00 3.468923143299881531e+02
4.198078972945580745e+02 -2.544728541991232618e+01 1.013445131313731551e+01 -2.544728541991232618e+01 5.423663301776053913e+02 -2.453424083056042093e+01 1.013445131313731551e+01 -2.453424083056042093e+01 4.841870049097967126e+02
4.794041986048030140e+02 5.521944952201618406e+00 -4.300070771674528558e+00 5.521944952201618406e+00 4.956311774866925930e+02 2.111023544541715324e+01 -4.300070771674528558e+00 2.111023544541715324e+01 4.802597658167084660e+02
4.005205822288921240e+02 1.712951876146414421e+01 2.427834257221672587e+01 1.712951876146414421e+01 5.293033463266436911e+02 1.435911069782085159e+00 2.427834257221672587e+01 1.435911069782085159e+00 4.763270935271231110e+02
2.927106625927811479e+02 8.885739245050887192e+00 -6.028346535969538422e+01 8.885739245050887192e+00 3.485669907949725257e+02 2.306073781427480185e+01 -6.028346535969538422e+01 2.306073781427480185e+01 3.151519407194724067e+02
1.854132942716100558e+02 4.175978538733811085e+00 1.659478514922133741e+01 4.175978538733811085e+00 2.151733897125449175e+02 1.066864216011883748e+01 1.659478514922133741e+01 1.066864216011883748e+01 1.788938687571105675e+02
3.169827036955772996e+02 2.671741036701411787e+01 2.199266406263522811e+01 2.671741036701411787e+01 3.295253289777488703e+02 -6.034319819388281658e+00 2.199266406263522811e+01 -6.034319819388281658e+00 3.465000744318380157e+02
1.417144638965348804e+02 4.506369288938748774e+00 1.183576867340361893e+01 4.506369288938748774e+00 1.792290878310480480e+02 -3.701508398328055449e+00 1.183576867340361893e+01 -3.701508398328055449e+00 1.694771056729065037e+02
1.776235714397116965e+02 1.526895162737089784e+01 2.302548354086810534e+01 1.526895162737089784e+01 1.523578666000246074e+02 1.874717491833391492e+01 2.302548354086810534e+01 1.874717491833391492e+01 1.677459073639921314e+02
1.587288084547813583e+02 1.654350825446974538e+00 -1.954038963595977663e+01 1.654350825446974538e+00 1.453343500889825464e+02 6.353777231524936120e+00 -1.954038963595977663e+01 6.353777231524936120e+00 1.735575686395305581e+02
4.595004212504372276e+02 -4.818804753156845777e+01 -1.787077802597039167e+01 -4.818804753156845777e+01 4.870681305667567926e+02 7.791938869436187076e+00 -1.787077802597039167e+01 7.791938869436187076e+00 5.125595233675401232e+02
4.931764245358589278e+02 1.352196559645475205e+01 3.449020820775803031e+01 1.352196559645475205e+01 5.190058680100355559e+02 3.421944541535891915e+01 3.449020820775803031e+01 3.421944541535891915e+01 4.916840173628862658e+02
2.677846924169928116e+02 -1.004765165595214427e+01 -1.565931738967873521e+01 -1.004765165595214427e+01 2.894685473939242684e+02 1.199211848610863917e+01 -1.565931738967873521e+01 1.199211848610863917e+01 2.700381992247203016e+02
1.915510484536851834e+02 -2.153969378772417009e+00 2.585293289690871799e+00 -2.153969378772417009e+00 1.771402286193792008e+02 -9.461658501887487915e+00 2.585293289690871799e+00 -9.461658501887487915e+00 1.812455646288890989e+02
4.342022858761089310e+02 8.452897824764592727e+00 -8.153376600064234481e+00 8.452897824764592727e+00 4.008483949882191837e+02 -1.556311379707571163e+01 -8.153376600064234481e+00 -1.556311379707571163e+01 4.434050304378624219e+02
3.475161577386678005e+02 3.083562890776195076e+01 3.049731110939629453e+00 3.083562890776195076e+01 3.245406356494293618e+02 -1.277376691381263818e+01 3.049731110939629453e+00 -1.277376691381263818e+01 3.537601438134930163e+02
5.084303685758889060e+02 -4.314582549448974014e+00 3.056811289271237442e+01 -4.314582549448974014e+00 5.243817373503818544e+02 3.044472458854499308e+01 3.056811289271237442e+01 3.044472458854499308e+01 4.769410202982799660e+02
4.071966618285882191e+02 -4.497269288681874855e+01 -6.689595695997886082e+01 -4.497269288681874855e+01 3.504675737668356987e+02 1.991410617034076935e+01 -6.689595695997886082e+01 1.991410617034076935e+01 4.030349492036174297e+02
2.410758968068569459e+02 -7.027516916487797971e+00 -4.403731360013748208e+00 -7.027516916487797971e+00 2.422329314201860200e+02 1.827810055317630855e+01 -4.403731360013748208e+00 1.827810055317630855e+01 2.555867676848346832e+02
1.773585333932567210e+02 -1.608115788491021103e+00 7.684412656930925678e-01 -1.608115788491021103e+00 1.917786269850508631e+02 3.377112939646370382e+00 7.684412656930925678e-01 3.377112939646370382e+00 1.807166828248712420e+02
2.608650059901325449e+02 6.173528270972021836e+00 8.467001688561208717e-01 6.173528270972021836e+00 2.712379528587583195e+02 -5.469344727165246667e+00 8.467001688561208717e-01 -5.469344727165246667e+00 2.303982244133693769e+02
2.422738325160703710e+02 1.840701992565584177e+01 -1.197085891449112616e+01 1.840701992565584177e+01 2.617500078515311657e+02 2.202854375260062003e+00 -1.197085891449112616e+01 2.202854375260062003e+00 2.727623349588964174e+02
4.401917366740931925e+02 2.025701241645782602e+01 -4.328758503709544669e+01 2.025701241645782602e+01 4.369517699025724937e+02 2.515652654326587268e+01 -4.328758503709544669e+01 2.515652654326587268e+01 4.096752539871849308e+02
1.857897434275822945e+02 1.370936256116466012e+01 -6.264714751342852495e+00 1.370936256116466012e+01 1.636535098989790527e+02 3.840267674923945052e+00 -6.264714751342852495e+00 3.840267674923945052e+00 1.865110777164434808e+02
4.884802355306094910e+02 -3.815099436984653636e+01 -5.892056274345288358e+01 -3.815099436984653636e+01 4.369834879762506716e+02 3.378952633835243091e+01 -5.892056274345288358e+01 3.378952633835243091e+01 4.903240598402614978e+02
2.020040533216706535e+02 -2.648746290769462775e+01 3.014326278884986365e+01 -2.648746290769462775e+01 2.825403408565317136e+02 -2.650554018096678988e+01 3.014326278884986365e+01 -2.650554018096678988e+01 2.798683900775291136e+02
5.106868042811464647e+02 -2.303796633571651764e+00 9.359993131170710967e+00 -2.303796633571651764e+00 5.426963295401683354e+02 -2.200532405478808684e+01 9.359993131170710967e+00 -2.200532405478808684e+01 5.117900071168695604e+02
5.216291790899334728e+02 -3.035303677179018678e+01 -3.301570820765339587e+00 -3.035303677179018678e+01 4.494388833532788112e+02 3.466472067008857039e+01 -3.301570820765339587e+00 3.466472067008857039e+01 5.308415859103384946e+02
2.187356868337750200e+02 -1.339966771474196250e+01 1.033384120891056845e+01 -1.339966771474196250e+01 2.691951446431035606e+02 2.158533569647759265e+01 1.033384120891056845e+01 2.158533569647759265e+01 2.559205692448381910e+02
3.532497998957149434e+02 -5.111929499494442197e+00 1.397616326822300259e+01 -5.111929499494442197e+00 3.607970844131466492e+02 1.209708577525996986e+01 1.397616326822300259e+01 1.209708577525996986e+01 2.870081972651445881e+02
4.390946535818036409e+02 -1.665147567640595838e+01 -1.522032320472373135e+00 -1.665147567640595838e+01 3.990526281848795520e+02 1.603410405868656241e+01 -1.522032320472373135e+00 1.603410405868656241e+01 3.725624611935378994e+02
5.067256172369190494e+02 8.335656120326186524e+00 8.671321632745072894e-02 8.335656120326186524e+00 4.918241175249128787e+02 -3.184023769306165264e+00 8.671321632745072894e-02 -3.184023769306165264e+00 4.918705271547063944e+02
2.033906538946896205e+02 4.356001213366092806e+00 6.246259008946727143e+00 4.356001213366092806e+00 1.636048369697693659e+02 -3.876529505039626233e+00 6.246259008946727143e+00 -3.876529505039626233e+00 1.732277488922432838e+02
3.854951729255675446e+02 2.745189384014667056e+01 1.993374146492964405e+00 2.745189384014667056e+01 4.526008835541954909e+02 5.247150664872117432e+01 1.993374146492964405e+00 5.247150664872117432e+01 3.884389989094133853e+02
2.986694027876015411e+02 -1.069135975138504557e+00 -7.831222735271498037e-01 -1.069135975138504557e+00 3.220373006936609954e+02 1.497125319278406863e+01 -7.831222735271498037e-01 1.497125319278406863e+01 3.431888254958089419e+02
4.813542697810376012e+02 3.650024172289817681e+00 -6.510418629920186717e+00 3.650024172289817681e+00 4.198364350630791364e+02 -2.018138716523054654e+01 -6.510418629920186717e+00 -2.018138716523054654e+01 4.182085393522588674e+02
1.657472578695814889e+02 2.183625562153105548e+00 3.294665615694282401e+00 2.183625562153105548e+00 1.783665823795484187e+02 -7.439325133817298763e+00 3.294665615694282401e+00 -7.439325133817298763e+00 1.860945776699234955e+02
4.124512756856578335e+02 -8.798646287107672492e+00 2.218861682538680569e+01 -8.798646287107672492e+00 4.660388675896134600e+02 2.750699057165903572e+00 2.218861682538680569e+01 2.750699057165903572e+00 4.361084061500470170e+02
5.142542090648922795e+02 2.782618566547020222e+01 -1.733307407075248463e+01 2.782618566547020222e+01 4.735104288694065531e+02 4.002015265628285334e+01 -1.733307407075248463e+01 4.002015265628285334e+01 5.252167235129770688e+02
1.935545262406880624e+02 1.990842991305078158e+01 -5.425174940268020940e+00 1.990842991305078158e+01 2.899841918484189591e+02 1.377742592664874799e+01 -5.425174940268020940e+00 1.377742592664874799e+01 2.878056707833933388e+02
4.869599666340123463e+02 -7.718667433195839367e-01 -1.229259517880655750e+01 -7.718667433195839367e-01 4.594916894946197203e+02 4.411656205468372782e+00 -1.229259517880655750e+01 4.411656205468372782e+00 4.624878384406708847e+02
2.329846278300524887e+02 2.455393290787386107e+00 -2.342261989605925621e+01 2.455393290787386107e+00 2.399162927301341597e+02 -1.834383860064722072e+01 -2.342261989605925621e+01 -1.834383860064722072e+01 2.583913429972278664e+02
4.819280647660012846e+02 1.205188780731893772e+01 -1.457712847301243642e+01 1.205188780731893772e+01 5.153246068521209509e+02 -1.433839475605024916e+01 -1.457712847301243642e+01 -1.433839475605024916e+01 4.886668810604410851e+02
3.083011852095220320e+02 6.077277539191192623e+00 -6.502786511845670248e+00 6.077277539191192623e+00 2.365243783268230402e+02 1.738718951005173352e+01 -6.502786511845670248e+00 1.738718951005173352e+01 2.562561663557627298e+02
4.153692949613270571e+02 -3.916999204681506086e+01 2.672408757548044278e+01 -3.916999204681506086e+01 4.630921576154103150e+02 -6.898281969895101007e+00 2.672408757548044278e+01 -6.898281969895101007e+00 4.425896509919434152e+02
3.830371051988914246e+02 -2.937974767157453115e+01 1.438270485008596467e+01 -2.937974767157453115e+01 4.992447555525103553e+02 -9.333788157246237560e+00 1.438270485008596467e+01 -9.333788157246237560e+00 4.342488594562327648e+02
4.058701437518640773e+02 3.242788404302768823e-01 -1.675882321746864134e+00 3.242788404302768823e-01 4.050219145088727828e+02 3.759177499368239861e+00 -1.675882321746864134e+00 3.759177499368239861e+00 4.132959353137609924e+02
4.812088697602591765e+02 1.389809225542462201e+01 1.560640851643362126e+01 1.389809225542462201e+01 4.695022873900535956e+02 2.650853662571051483e+00 1.560640851643362126e+01 2.650853662571051483e+00 5.175720522400669097e+02
3.220221161126623883e+02 1.663544369648776566e+01 1.940187983464874977e+00 1.663544369648776566e+01 3.273449268407378554e+02 -5.230153985164983643e-01 1.940187983464874977e+00 -5.230153985164983643e-01 3.290554613379429725e+02
4.379226370468242067e+02 -6.055323731527210818e+00 -1.741711339341014764e+01 -6.055323731527210818e+00 4.020711511115472945e+02 2.916043108878537460e+00 -1.741711339341014764e+01 2.916043108878537460e+00 3.672912316953255640e+02
4.003071002757817496e+02 1.558068134189468701e+01 2.044804585313713119e+01 1.558068134189468701e+01 3.758952690579436648e+02 -1.061486455668656248e+01 2.044804585313713119e+01 -1.061486455668656248e+01 4.880102700436206646e+02
3.690635243634914104e+02 -3.059158445689997308e+01 -1.280417052841520231e+01 -3.059158445689997308e+01 4.546471480658988185e+02 3.269656678807446326e+01 -1.280417052841520231e+01 3.269656678807446326e+01 4.144642228301181035e+02
4.187298192965096177e+02 2.545827794858704607e+01 -5.949518576500300071e+01 2.545827794858704607e+01 4.182686567689821118e+02 1.857425495485646749e+01 -5.949518576500300071e+01 1.857425495485646749e+01 4.086450496720071328e+02
1.626209313351459684e+02 -1.439617737370440409e+01 6.149134332600820763e+00 -1.439617737370440409e+01 1.470733443891692218e+02 1.320639701184240700e+01 6.149134332600820763e+00 1.320639701184240700e+01 2.035149566721466670e+02
2.386550261866333358e+02 1.297384055000335401e+01 -2.164264858821224990e+01 1.297384055000335401e+01 2.587697510657799853e+02 3.109070222490972668e+01 -2.164264858821224990e+01 3.109070222490972668e+01 2.153479826907918380e+02
1.792665765538487790e+02 3.583942094517207355e+00 1.231366424798221004e+00 3.583942094517207355e+00 1.900872358205517685e+02 -6.248691651648852208e+00 1.231366424798221004e+00 -6.248691651648852208e+00 1.598257685064066038e+02
5.148400847093899984e+02 -3.470102288320625616e-01 -1.088854173321313645e+01 -3.470102288320625616e-01 5.006310426062581769e+02 -1.771201097348920328e+01 -1.088854173321313645e+01 -1.771201097348920328e+01 5.365332470839640564e+02
3.349861667427391012e+02 -8.752985293278719325e+00 7.211730645846916588e+00 -8.752985293278719325e+00 3.489853077823523222e+02 -2.805309446065080792e+01 7.211730645846916588e+00 -2.805309446065080792e+01 3.667700659607468197e+02
1.306308501476905519e+02 2.691218203606986936e+00 -7.882144847631376905e+00 2.691218203606986936e+00 1.615792899821471451e+02 -4.610398790908253552e+00 -7.882144847631376905e+00 -4.610398790908253552e+00 1.879981038433326148e+02
3.426901499482592612e+02 1.638263987621675355e+01 1.721977098094492575e+01 1.638263987621675355e+01 2.984572464236445057e+02 7.379931880925099108e-01 1.721977098094492575e+01 7.379931880925099108e-01 3.025245663703679497e+02
2.376744679675698535e+02 -5.070612956960206752e+00 -3.017201421194008137e+00 -5.070612956960206752e+00 2.724253466807796826e+02 -3.576276546012194046e+01 -3.017201421194008137e+00 -3.576276546012194046e+01 2.647203028701829339e+02
4.052667105928110232e+02 6.811497286553820807e+00 3.185549204221372932e+01 6.811497286553820807e+00 3.592344003966079526e+02 5.835812712882698428e+00 3.185549204221372932e+01 5.835812712882698428e+00 4.269296127083273404e+02
4.496289440250372991e+02 -1.161730203526742855e+01 -1.859473180704547346e+01 -1.161730203526742855e+01 4.658615791620726441e+02 2.887322511338771824e-01 -1.859473180704547346e+01 2.887322511338771824e-01 5.189793608080941567e+02
2.392825009688465911e+02 2.284664153001008557e+01 1.273611447735733826e+01 2.284664153001008557e+01 2.446887706509300813e+02 -5.642352973236570257e+00 1.273611447735733826e+01 -5.642352973236570257e+00 2.641183132287454214e+02
4.900840672755993523e+02 3.132902469413746260e+01 -4.594884072998304703e+01 3.132902469413746260e+01 4.433494612319022963e+02 -8.369271198539092183e+00 -4.594884072998304703e+01 -8.369271198539092183e+00 4.817489159816732922e+02
3.894224697832986521e+02 -2.794984876521488104e+01 4.612117268383741475e+00 -2.794984876521488104e+01 3.159082597604053717e+02 2.363314231023708079e+00 4.612117268383741475e+00 2.363314231023708079e+00 3.311527443250416809e+02
1.615279413807887181e+02 5.763232353946893483e+00 6.181334161651551362e+00 5.763232353946893483e+00 1.638598429952297693e+02 -3.004093725108537427e+01 6.181334161651551362e+00 -3.004093725108537427e+01 1.893226709263946077e+02
4.899313482879593948e+02 7.712394140169091195e+00 8.766696163888591187e+00 7.712394140169091195e+00 5.323420325857998705e+02 -7.014569851341508899e-01 8.766696163888591187e+00 -7.014569851341508899e-01 4.249020824455869842e+02
2.442906127161798508e+02 -1.285818783992025871e+01 3.172764656589086130e+01 -1.285818783992025871e+01 2.513741553066638801e+02 -4.836004441100873130e+00 3.172764656589086130e+01 -4.836004441100873130e+00 2.400697154575934178e+02
2.046697928703832758e+02 5.878863390801800648e+00 -2.901770118181513070e+01 5.878863390801800648e+00 1.421748493030021621e+02 -1.593770503545914785e+01 -2.901770118181513070e+01 -1.593770503545914785e+01 1.907273039923588556e+02
3.997557584258861993e+02 1.495145804983857829e+01 6.601274033383067952e+00 1.495145804983857829e+01 3.615921444753203104e+02 1.599172416903620508e+01 6.601274033383067952e+00 1.599172416903620508e+01 3.788001476718140452e+02
3.788173369722973121e+02 1.107734372260216205e+01 -2.246829070349192747e+01 1.107734372260216205e+01 3.737702328214498948e+02 -4.915489669904737013e+00 -2.246829070349192747e+01 -4.915489669904737013e+00 4.326203427698498558e+02
2.488855238233923615e+02 -2.910692479206037930e+01 -3.275519088985355154e+01 -2.910692479206037930e+01 2.633406620900004782e+02 -1.121635512769532106e+00 -3.275519088985355154e+01 -1.121635512769532106e+00 2.286760437557347245e+02
5.307745295216134309e+02 -3.724433378643287540e+01 -1.515021113028369548e+01 -3.724433378643287540e+01 5.019154191955253168e+02 -3.294586304909858399e+01 -1.515021113028369548e+01 -3.294586304909858399e+01 5.091951178833118092e+02
1.873428788438767469e+02 9.677057157671796972e+00 -3.259964239937373165e+00 9.677057157671796972e+00 2.164790766393431056e+02 1.404933118165955541e+01 -3.259964239937373165e+00 1.404933118165955541e+01 1.645561072753164638e+02
1.676880917169822283e+02 -2.362456592139994704e+00 2.791063279924598461e+01 -2.362456592139994704e+00 2.059195396261396525e+02 1.479153359171878535e+01 2.791063279924598461e+01 1.479153359171878535e+01 1.726705878789590258e+02
4.234905522794260264e+02 8.350094179987307186e+00 -2.335882836874540658e+01 8.350094179987307186e+00 4.692568081310540151e+02 3.008289971537017049e+00 -2.335882836874540658e+01 3.008289971537017049e+00 4.841665204280352555e+02
3.241412491574960200e+02 -9.572949185782517745e+00 1.122060214466120520e+01 -9.572949185782517745e+00 2.939756524509346036e+02 -1.490796019159405628e+00 1.122060214466120520e+01 -1.490796019159405628e+00 3.577738331765579005e+02
1.446827479917631649e+02 2.883501635346912551e+01 6.417676698891273013e+00 2.883501635346912551e+01 1.962119161275372505e+02 -1.302261449251316350e+01 6.417676698891273013e+00 -1.302261449251316350e+01 1.580468532241225148e+02
3.366439293008504023e+02 -1.007154835870332299e+01 4.074703717605097353e+01 -1.007154835870332299e+01 2.882388183229668925e+02 -8.195865082072208097e+00 4.074703717605097353e+01 -8.195865082072208097e+00 2.762215919914985989e+02
4.254938158031807802e+02 3.493936540898938858e+01 -5.134046925922125304e+00 3.493936540898938858e+01 3.672050774606150867e+02 5.003847366459509338e+00 -5.134046925922125304e+00 5.003847366459509338e+00 4.461109574747962370e+02
3.978438226604818055e+02 1.983392183816155097e+01 1.166676328895464643e+01 1.983392183816155097e+01 3.914711793849386368e+02 4.046502837906116667e+01 1.166676328895464643e+01 4.046502837906116667e+01 3.900664596591981876e+02
5.239134552498494486e+02 -1.290662859963047637e+01 -2.818684748973555032e-01 -1.290662859963047637e+01 5.113034900662178188e+02 -3.337328555101960603e+01 -2.818684748973555032e-01 -3.337328555101960603e+01 4.925986807328706618e+02
1.887045280914194620e+02 3.731623144271946635e-01 -7.773979641715483835e-01 3.731623144271946635e-01 2.049563213071022574e+02 2.691589053594040593e+01 -7.773979641715483835e-01 2.691589053594040593e+01 1.811856421981490826e+02
4.374835867930731865e+02 2.396041705968036339e+01 -3.250713985624985369e+00 2.396041705968036339e+01 3.911845594141153697e+02 -3.619462355813178789e+01 -3.250713985624985369e+00 -3.619462355813178789e+01 4.304479126990624991e+02
3.076243069275089397e+02 -2.503148330022947832e+01 -1.972005055797196249e+01 -2.503148330022947832e+01 3.303778471962506273e+02 -4.580157174088246741e+00 -1.972005055797196249e+01 -4.580157174088246741e+00 3.188217140114824701e+02
1.478688629204031884e+02 3.202175204694810873e+00 -7.051818129291104853e+00 3.202175204694810873e+00 1.802015308474932738e+02 5.191851552215368315e+00 -7.051818129291104853e+00 5.191851552215368315e+00 1.908013636214278108e+02
4.807626576472947022e+02 -3.526988448162058631e+01 1.093445554609390413e+01 -3.526988448162058631e+01 5.696198140500240470e+02 -1.530102516912418054e+00 1.093445554609390413e+01 -1.530102516912418054e+00 5.497036089320964720e+02
5.117076296383517615e+02 3.782961832973787608e+01 -9.444922947371837907e+00 3.782961832973787608e+01 5.270560495847020093e+02 -1.314546189307804802e+01 -9.444922947371837907e+00 -1.314546189307804802e+01 5.319354533571793127e+02
4.194432789876863694e+02 -5.887250367622117508e+00 1.411706310439401335e+01 -5.887250367622117508e+00 3.780532361546347602e+02 -1.532654896622564600e+01 1.411706310439401335e+01 -1.532654896622564600e+01 3.417601166477090828e+02
4.520040074249806139e+02 2.747989047469073043e+01 1.020672292703275197e+01 2.747989047469073043e+01 3.743510000549422898e+02 8.472248892827836997e+00 1.020672292703275197e+01 8.472248892827836997e+00 3.723547138458597487e+02
2.443839022031154968e+02 -5.741525173408273730e+00 2.376927628288358463e+01 -5.741525173408273730e+00 2.468371498650888327e+02 -2.746234176333693355e+01 2.376927628288358463e+01 -2.746234176333693355e+01 2.253514191137726925e+02
5.564730704017997596e+02 -8.086514056601831868e+00 3.615285529922416430e+01 -8.086514056601831868e+00 4.587964790264196040e+02 2.845412349310295852e+01 3.615285529922416430e+01 2.845412349310295852e+01 4.847599321301800614e+02
2.657441931674414946e+02 -4.805599457805404207e+00 8.305127272359760227e+00 -4.805599457805404207e+00 2.311477658689774159e+02 -8.650971218297614840e+00 8.305127272359760227e+00 -8.650971218297614840e+00 2.735759264622328715e+02
5.180863161564011534e+02 2.966018159875463311e+01 2.309089576673867228e+01 2.966018159875463311e+01 5.002722006240574615e+02 5.258764316497480706e+01 2.309089576673867228e+01 5.258764316497480706e+01 4.840141302275571320e+02
3.439637679458264756e+02 -2.036089115584541531e+01 -9.963760598518476286e+00 -2.036089115584541531e+01 3.055280687516827243e+02 3.149119720881214235e+01 -9.963760598518476286e+00 3.149119720881214235e+01 3.363730586744596280e+02
5.144781905600435721e+02 5.397120459210444920e+01 1.366837298949973700e+01 5.397120459210444920e+01 5.401451475934235305e+02 -1.639868386145166568e+01 1.366837298949973700e+01 -1.639868386145166568e+01 4.979832355276676594e+02
1.687703456096693628e+02 -1.382724552007416108e+01 7.914506903709312979e+00 -1.382724552007416108e+01 1.550235475352393166e+02 1.308279487457459744e+01 7.914506903709312979e+00 1.308279487457459744e+01 1.750035135309648524e+02
2.665077023257740052e+02 1.637781232943505572e+01 -8.216989425366534761e+00 1.637781232943505572e+01 2.792541602856199461e+02 1.078637325508303668e+01 -8.216989425366534761e+00 1.078637325508303668e+01 2.753108869951243491e+02
2.570525094395764540e+02 -2.009500319668338530e+00 -5.031882223925720155e+00 -2.009500319668338530e+00 2.706479494227580176e+02 -3.020915203150997996e+01 -5.031882223925720155e+00 -3.020915203150997996e+01 2.811397015337764174e+02
1.855257290685723035e+02 -3.248363470501947514e+00 1.695417092926156499e+00 -3.248363470501947514e+00 1.535946181875492300e+02 -8.547960537523215052e+00 1.695417092926156499e+00 -8.547960537523215052e+00 2.047077054063444450e+02
2.458952320691102216e+02 1.733586277307575685e+01 -1.386372624042873802e+01 1.733586277307575685e+01 2.533362876271338848e+02 -2.234559082193699808e+01 -1.386372624042873802e+01 -2.234559082193699808e+01 2.734894420244211801e+02
3.943887924985127711e+02 -3.018576986966669295e+01 -2.478779849248322265e+01 -3.018576986966669295e+01 4.573920659406511504e+02 -6.778475278825720096e+00 -2.478779849248322265e+01 -6.778475278825720096e+00 4.541417561070196030e+02
2.567799423240930423e+02 -1.962517311606463721e+01 -1.622512374148411762e+00 -1.962517311606463721e+01 3.598588117504557999e+02 -1.240380870622147036e+01 -1.622512374148411762e+00 -1.240380870622147036e+01 3.275487979881389151e+02
2.337935460427941905e+02 3.784735917253571724e+00 7.013545118380470900e-01 3.784735917253571724e+00 2.272088286543816196e+02 -3.934579757955582568e+00 7.013545118380470900e-01 -3.934579757955582568e+00 2.640161825575250987e+02