1.303500000000000014e+01 0.000000000000000000e+00 0.000000000000000000e+00 0.000000000000000000e+00 1.303500000000000014e+01 0.000000000000000000e+00 0.000000000000000000e+00 0.000000000000000000e+00 1.303500000000000014e+01
1.313799999999999990e+01 0.000000000000000000e+00 0.000000000000000000e+00 0.000000000000000000e+00 1.313799999999999990e+01 0.000000000000000000e+00 0.000000000000000000e+00 0.000000000000000000e+00 1.313799999999999990e+01
1.294699999999999918e+01 0.000000000000000000e+00 0.000000000000000000e+00 0.000000000000000000e+00 1.294699999999999918e+01 0.000000000000000000e+00 0.000000000000000000e+00 0.000000000000000000e+00 1.294699999999999918e+01
1.320899999999999963e+01 0.000000000000000000e+00 0.000000000000000000e+00 0.000000000000000000e+00 1.320899999999999963e+01 0.000000000000000000e+00 0.000000000000000000e+00 0.000000000000000000e+00 1.320899999999999963e+01
1.310800000000000054e+01 0.000000000000000000e+00 0.000000000000000000e+00 0.000000000000000000e+00 1.310800000000000054e+01 0.000000000000000000e+00 0.000000000000000000e+00 0.000000000000000000e+00 1.310800000000000054e+01
1.336500000000000021e+01 0.000000000000000000e+00 0.000000000000000000e+00 0.000000000000000000e+00 1.336500000000000021e+01 0.000000000000000000e+00 0.000000000000000000e+00 0.000000000000000000e+00 1.336500000000000021e+01
1.314100000000000001e+01 0.000000000000000000e+00 0.000000000000000000e+00 0.000000000000000000e+00 1.314100000000000001e+01 0.000000000000000000e+00 0.000000000000000000e+00 0.000000000000000000e+00 1.314100000000000001e+01
1.320400000000000063e+01 0.000000000000000000e+00 0.000000000000000000e+00 0.000000000000000000e+00 1.320400000000000063e+01 0.000000000000000000e+00 0.000000000000000000e+00 0.000000000000000000e+00 1.320400000000000063e+01
1.311500000000000021e+01 0.000000000000000000e+00 0.000000000000000000e+00 0.000000000000000000e+00 1.311500000000000021e+01 0.000000000000000000e+00 0.000000000000000000e+00 0.000000000000000000e+00 1.311500000000000021e+01
1.309500000000000064e+01 0.000000000000000000e+00 0.000000000000000000e+00 0.000000000000000000e+00 1.309500000000000064e+01 0.000000000000000000e+00 0.000000000000000000e+00 0.000000000000000000e+00 1.309500000000000064e+01
1.324200000000000088e+01 0.000000000000000000e+00 0.000000000000000000e+00 0.000000000000000000e+00 1.324200000000000088e+01 0.000000000000000000e+00 0.000000000000000000e+00 0.000000000000000000e+00 1.324200000000000088e+01
1.325600000000000023e+01 0.000000000000000000e+00 0.000000000000000000e+00 0.000000000000000000e+00 1.325600000000000023e+01 0.000000000000000000e+00 0.000000000000000000e+00 0.000000000000000000e+00 1.325600000000000023e+01
1.319999999999999929e+01 0.000000000000000000e+00 0.000000000000000000e+00 0.000000000000000000e+00 1.319999999999999929e+01 0.000000000000000000e+00 0.000000000000000000e+00 0.000000000000000000e+00 1.319999999999999929e+01
1.316200000000000081e+01 0.000000000000000000e+00 0.000000000000000000e+00 0.000000000000000000e+00 1.316200000000000081e+01 0.000000000000000000e+00 0.000000000000000000e+00 0.000000000000000000e+00 1.316200000000000081e+01
1.334999999999999964e+01 0.000000000000000000e+00 0.000000000000000000e+00 0.000000000000000000e+00 1.334999999999999964e+01 0.000000000000000000e+00 0.000000000000000000e+00 0.000000000000000000e+00 1.334999999999999964e+01
1.321599999999999930e+01 0.000000000000000000e+00 0.000000000000000000e+00 0.000000000000000000e+00 1.321599999999999930e+01 0.000000000000000000e+00 0.000000000000000000e+00 0.000000000000000000e+00 1.321599999999999930e+01
1.325900000000000034e+01 0.000000000000000000e+00 0.000000000000000000e+00 0.000000000000000000e+00 1.325900000000000034e+01 0.000000000000000000e+00 0.000000000000000000e+00 0.000000000000000000e+00 1.325900000000000034e+01
1.322799999999999976e+01 0.000000000000000000e+00 0.000000000000000000e+00 0.000000000000000000e+00 1.322799999999999976e+01 0.000000000000000000e+00 0.000000000000000000e+00 0.000000000000000000e+00 1.322799999999999976e+01
1.331499999999999950e+01 0.000000000000000000e+00 0.000000000000000000e+00 0.000000000000000000e+00 1.331499999999999950e+01 0.000000000000000000e+00 0.000000000000000000e+00 0.000000000000000000e+00 1.331499999999999950e+01
1.304199999999999982e+01 0.000000000000000000e+00 0.000000000000000000e+00 0.000000000000000000e+00 1.304199999999999982e+01 0.000000000000000000e+00 0.000000000000000000e+00 0.000000000000000000e+00 1.304199999999999982e+01
1.312700000000000067e+01 0.000000000000000000e+00 0.000000000000000000e+00 0.000000000000000000e+00 1.312700000000000067e+01 0.000000000000000000e+00 0.000000000000000000e+00 0.000000000000000000e+00 1.312700000000000067e+01
1.311299999999999955e+01 0.000000000000000000e+00 0.000000000000000000e+00 0.000000000000000000e+00 1.311299999999999955e+01 0.000000000000000000e+00 0.000000000000000000e+00 0.000000000000000000e+00 1.311299999999999955e+01
1.295800000000000018e+01 0.000000000000000000e+00 0.000000000000000000e+00 0.000000000000000000e+00 1.295800000000000018e+01 0.000000000000000000e+00 0.000000000000000000e+00 0.000000000000000000e+00 1.295800000000000018e+01
1.325799999999999912e+01 0.000000000000000000e+00 0.000000000000000000e+00 0.000000000000000000e+00 1.325799999999999912e+01 0.000000000000000000e+00 0.000000000000000000e+00 0.000000000000000000e+00 1.325799999999999912e+01
1.313400000000000034e+01 0.000000000000000000e+00 0.000000000000000000e+00 0.000000000000000000e+00 1.313400000000000034e+01 0.000000000000000000e+00 0.000000000000000000e+00 0.000000000000000000e+00 1.313400000000000034e+01
1.320800000000000018e+01 0.000000000000000000e+00 0.000000000000000000e+00 0.000000000000000000e+00 1.320800000000000018e+01 0.000000000000000000e+00 0.000000000000000000e+00 0.000000000000000000e+00 1.320800000000000018e+01
1.305799999999999983e+01 0.000000000000000000e+00 0.000000000000000000e+00 0.000000000000000000e+00 1.305799999999999983e+01 0.000000000000000000e+00 0.000000000000000000e+00 0.000000000000000000e+00 1.305799999999999983e+01
1.322000000000000064e+01 0.000000000000000000e+00 0.000000000000000000e+00 0.000000000000000000e+00 1.322000000000000064e+01 0.000000000000000000e+00 0.000000000000000000e+00 0.000000000000000000e+00 1.322000000000000064e+01
1.337400000000000055e+01 0.000000000000000000e+00 0.000000000000000000e+00 0.000000000000000000e+00 1.337400000000000055e+01 0.000000000000000000e+00 0.000000000000000000e+00 0.000000000000000000e+00 1.337400000000000055e+01
1.328500000000000014e+01 0.000000000000000000e+00 0.000000000000000000e+00 0.000000000000000000e+00 1.328500000000000014e+01 0.000000000000000000e+00 0.000000000000000000e+00 0.000000000000000000e+00 1.328500000000000014e+01
1.316900000000000048e+01 0.000000000000000000e+00 0.000000000000000000e+00 0.000000000000000000e+00 1.316900000000000048e+01 0.000000000000000000e+00 0.000000000000000000e+00 0.000000000000000000e+00 1.316900000000000048e+01
1.310599999999999987e+01 0.000000000000000000e+00 0.000000000000000000e+00 0.000000000000000000e+00 1.310599999999999987e+01 0.000000000000000000e+00 0.000000000000000000e+00 0.000000000000000000e+00 1.310599999999999987e+01
1.317399999999999949e+01 0.000000000000000000e+00 0.000000000000000000e+00 0.000000000000000000e+00 1.317399999999999949e+01 0.000000000000000000e+00 0.000000000000000000e+00 0.000000000000000000e+00 1.317399999999999949e+01
1.331300000000000061e+01 0.000000000000000000e+00 0.000000000000000000e+00 0.000000000000000000e+00 1.331300000000000061e+01 0.000000000000000000e+00 0.000000000000000000e+00 0.000000000000000000e+00 1.331300000000000061e+01
1.310699999999999932e+01 0.000000000000000000e+00 0.000000000000000000e+00 0.000000000000000000e+00 1.310699999999999932e+01 0.000000000000000000e+00 0.000000000000000000e+00 0.000000000000000000e+00 1.310699999999999932e+01
1.328700000000000081e+01 0.000000000000000000e+00 0.000000000000000000e+00 0.000000000000000000e+00 1.328700000000000081e+01 0.000000000000000000e+00 0.000000000000000000e+00 0.000000000000000000e+00 1.328700000000000081e+01
