1.001437100000000058e+01 5.455071000000000225e+00 1.177109999999999962e-01 7.898621000000000336e+00 1.088947100000000034e+01 1.027577100000000065e+01 2.902181000000000122e+00 6.443861000000000061e+00 6.048060999999999687e+00 9.543471000000000259e+00 1.094347100000000061e+01 9.424909999999999677e-01 7.659601000000000326e+00 5.544761000000000273e+00 1.244307099999999977e+01 1.262437100000000001e+01 4.527781000000000056e+00 3.615410999999999930e+00 5.009750999999999621e+00 1.369040999999999952e+00 1.214837099999999914e+01 1.118157099999999993e+01 9.151771000000000100e+00 8.890871000000000635e+00 7.260100999999999694e+00 9.320671000000000816e+00 3.023671000000000220e+00 8.187901000000000096e+00 9.566071000000000879e+00 5.215540999999999983e+00 1.074057099999999920e+01 4.810450999999999588e+00 6.617301000000000322e+00 8.777170999999999168e+00 3.889221000000000039e+00 5.436740999999999602e+00 1.186507100000000037e+01 1.194257099999999916e+01 7.507931000000000132e+00 6.463771000000000377e+00 1.138137099999999968e+01 1.199677100000000074e+01 8.226451000000000846e+00 7.846231000000000400e+00 1.174417099999999969e+01 5.657390999999999615e+00 7.591071000000000346e+00 6.562340999999999980e+00 5.430680999999999869e+00 8.258100999999999914e+00 9.023370999999999142e+00 5.995141000000000275e+00 2.110691000000000095e+00 6.953250999999999848e+00 5.886941000000000201e+00 1.070407100000000078e+01 8.564871000000000123e+00 7.181860999999999606e+00 4.277261000000000202e+00 9.726471000000000089e+00 2.663011000000000017e+00 6.764331000000000316e+00 1.318901000000000101e+00 2.973831000000000113e+00 1.089157100000000078e+01 7.227370999999999768e+00 1.287997099999999939e+01 5.487200999999999773e+00 7.128101000000000020e+00 7.509171000000000262e+00 1.239297099999999929e+01 9.577210000000000445e-01 2.327961000000000169e+00 7.466830999999999996e+00 1.042137100000000061e+01 9.445370999999999739e+00 1.684501000000000026e+00 9.949970999999999677e+00 2.925460999999999867e+00 3.779450999999999894e+00 3.773731000000000169e+00 7.146520999999999901e+00 8.530371000000000592e+00 8.144010000000000415e-01 5.397311000000000192e+00 5.606340999999999575e+00 3.786080999999999808e+00 1.067777099999999990e+01 2.143600999999999868e+00 2.200620999999999938e+00 1.195117100000000043e+01 6.454111000000000153e+00 2.388201000000000018e+00 9.767571000000000225e+00 1.302510000000000057e-01 1.564200999999999953e+00 1.284547099999999986e+01 1.176707099999999961e+01 5.255360999999999727e+00 1.175217100000000059e+01 8.693270999999999304e+00 4.503141000000000282e+00 1.233517100000000077e+01 1.017057100000000069e+01 1.071437099999999987e+01 9.451071000000000666e+00 3.960980999999999863e+00 3.186811000000000060e+00 5.706909999999999483e-01 5.791910999999999810e+00 6.421310000000000073e-01 3.481509999999999883e-01 5.860910000000000286e-01 3.572370999999999963e+00 2.532481000000000204e+00 1.174217100000000080e+01 2.015210000000000057e-01 6.806261000000000116e+00 5.377100999999999686e+00 6.727641000000000204e+00 1.199387100000000039e+01 1.222367099999999951e+01 1.197967099999999974e+01 1.200377100000000041e+01 4.051270999999999844e+00 1.289807099999999984e+01 3.684310000000000085e-01 1.444140999999999897e+00 1.021077099999999938e+01 8.538971000000000089e+00 6.611461000000000254e+00 8.300470999999999933e+00 6.071551000000000364e+00 8.671571000000000140e+00 4.825290999999999997e+00 2.865851000000000148e+00 1.028827099999999994e+01 3.249350999999999878e+00 8.380461000000000382e+00 8.752271000000000356e+00 9.488170999999999466e+00 1.268667100000000048e+01 8.570771000000000583e+00 6.805011000000000365e+00 3.608651000000000053e+00 3.835201000000000082e+00 1.481621000000000077e+00 5.669321000000000055e+00 1.224687100000000051e+01 2.509411000000000058e+00 1.025097099999999983e+01 1.226967100000000066e+01 4.176521000000000150e+00 2.725620999999999849e+00 6.271401000000000003e+00 8.445370999999999739e+00 5.946310000000000207e-01 1.237167099999999920e+01 9.192971000000000004e+00 1.105231000000000074e+00 4.126610000000000000e-01 1.218457100000000004e+01 3.471451000000000064e+00 1.274437099999999923e+01 2.924011000000000138e+00 1.216427099999999939e+01 4.744209999999999816e-01 1.566090999999999900e+00 4.455500999999999934e+00 1.059707099999999969e+01 1.069690999999999947e+00 9.474871000000000265e+00 6.979171000000000014e+00 3.075080999999999953e+00 3.102621000000000073e+00 9.634271000000000029e+00 1.086777099999999940e+01 8.046741000000000810e+00 9.867909999999999737e-01 7.794341000000000186e+00 6.108291000000000359e+00 3.764901000000000053e+00 5.220540999999999876e+00 9.596171000000000006e+00 5.047551000000000343e+00 9.883271000000000583e+00 9.665171000000000845e+00 1.180517099999999964e+01 1.162787100000000073e+01 5.141409999999999592e-01 2.648801000000000183e+00 2.320880999999999972e+00 5.509960999999999665e+00 1.171127099999999999e+01 5.430911000000000044e+00 3.076480999999999799e+00 6.706980999999999860e+00 3.686190999999999995e+00 5.478111000000000175e+00 6.213130999999999737e+00 1.036097099999999926e+01 2.599561000000000011e+00 6.796099999999999364e-02 6.319511000000000323e+00 4.100551000000000279e+00 8.722070999999999685e+00 1.024081000000000019e+00 2.560960999999999821e+00 1.755390999999999924e+00 1.572850999999999999e+00 1.607890999999999959e+00 8.469550999999999163e+00 1.233497099999999946e+01 1.080317100000000075e+01 2.580760999999999861e+00 1.159547099999999986e+01 3.873550999999999966e+00 9.589271000000000100e+00 5.313940999999999804e+00 1.213407100000000050e+01 6.789441000000000059e+00 8.838171000000000888e+00 5.820809999999999595e-01 9.546070999999999529e+00 3.952221000000000206e+00 6.284210000000000074e-01 9.460770999999999376e+00 8.879870999999999626e+00 7.069281000000000148e+00 6.806051000000000073e+00 2.272231000000000112e+00 2.024601000000000095e+00 8.669670999999999239e+00 7.136720999999999648e+00 7.249371000000000009e+00 3.421050999999999842e+00 2.391331000000000095e+00 3.102460999999999913e+00 1.174807099999999949e+01 9.611271000000000342e+00 3.503630999999999940e+00 1.132301000000000002e+00 1.055357099999999981e+01 6.657900999999999847e+00 1.214697100000000063e+01 7.138620999999999661e+00 1.063887099999999997e+01 1.024427099999999946e+01 2.989460999999999924e+00 2.521460999999999952e+00 3.276961000000000013e+00 9.730670999999999182e+00 6.863391000000000020e+00 1.472010999999999958e+00 7.966099999999999570e-02 4.021961000000000119e+00 4.529721000000000330e+00 1.105297099999999944e+01 1.042737100000000083e+01 6.864609999999999879e-01 7.793530999999999764e+00 7.721731000000000122e+00 1.236247099999999932e+01 4.582631000000000121e+00 5.687160999999999689e+00 4.503060999999999758e+00 6.056909999999999794e-01 9.653670999999999225e+00 8.989871000000000834e+00 6.873550999999999966e+00 7.948309999999999542e-01 1.051347099999999912e+01 1.713470999999999966e+00 9.734071000000000140e+00 6.865191000000000265e+00 5.587831000000000437e+00 3.242071000000000147e+00 1.976580999999999921e+00 5.103820999999999941e+00 1.176807100000000084e+01 5.814640999999999948e+00 1.079607099999999953e+01 8.641470999999999236e+00 2.115320999999999785e+00 1.213247100000000067e+01 5.245421000000000333e+00 1.243257099999999937e+01 1.031787100000000024e+01 6.594609999999999639e-01 2.885060999999999876e+00 8.344521000000000299e+00 7.742681000000000147e+00 1.834931000000000090e+00 4.234841000000000300e+00 1.259007100000000001e+01 9.126471000000000444e+00 4.817110000000000003e-01 5.726990999999999943e+00 2.662570999999999799e+00 1.044887100000000046e+01 3.677721000000000018e+00 1.752561000000000035e+00 7.284981000000000151e+00 1.216787099999999988e+01 1.983500999999999959e+00 6.905051000000000272e+00 1.054707100000000075e+01 1.279441000000000050e+00 5.483230999999999966e+00 1.128557099999999913e+01 7.445521000000000278e+00 1.257417099999999976e+01 4.472131000000000078e+00 5.166330999999999563e+00 7.376510999999999818e+00 9.611210000000000031e-01 4.513111000000000317e+00 5.285530999999999757e+00 3.195021000000000111e+00 2.085471000000000075e+00 9.654671000000000447e+00 7.872001000000000026e+00 8.631171000000000149e+00 1.276727099999999915e+01 3.252690999999999999e+00 8.441031000000000617e+00 1.017727099999999929e+01 9.553971000000000657e+00 1.321271000000000084e+00 2.140781000000000045e+00 3.085520999999999958e+00 4.443501000000000367e+00 2.589191000000000020e+00 4.395280999999999771e+00 6.484060999999999630e+00 3.615000999999999909e+00 4.935061000000000142e+00 3.493161000000000183e+00 1.119827100000000009e+01 3.588991000000000042e+00 7.534251000000000253e+00 6.447810000000000485e-01 9.248070999999999486e+00 4.700770999999999589e+00 4.296720999999999790e+00 4.943210999999999800e+00 8.267780999999999381e+00 5.508661000000000030e+00 5.555601000000000234e+00 1.266627100000000006e+01 6.385011000000000436e+00 8.631671000000000760e+00 2.549891000000000130e+00 4.896601000000000425e+00 9.393770999999999205e+00 7.629300999999999888e+00 6.673331000000000124e+00 7.429141000000000439e+00 6.005310000000000370e-01 4.690051000000000414e+00 6.111491000000000007e+00 3.828860999999999848e+00 1.785501000000000005e+00 1.279947100000000049e+01 1.845809999999999951e-01 1.265057099999999934e+01 1.069967100000000038e+01 9.155070999999999515e+00 3.824380999999999808e+00 1.187407100000000071e+01 4.604771000000000392e+00 7.362841000000000413e+00 1.064407100000000028e+01 2.264901000000000053e+00 1.025867099999999965e+01 1.777260999999999980e+00 3.638831000000000149e+00 8.563470999999999833e+00 5.550891000000000020e+00 1.450341000000000102e+00 3.169609999999999927e-01 1.074567099999999975e+01 1.259427100000000088e+01 1.154497100000000032e+01 1.089967099999999967e+01 4.590010999999999619e+00 4.933310000000000195e-01 1.142437100000000072e+01 7.776750999999999969e+00 9.357670999999999850e+00 5.410801000000000194e+00 9.592470999999999748e+00 9.092271000000000214e+00 3.593951000000000118e+00 1.089877099999999999e+01 1.066047099999999936e+01 3.156220999999999943e+00 9.510471000000000785e+00 6.664090999999999987e+00 2.159190999999999860e+00 4.283540999999999599e+00 4.803111000000000352e+00 1.535211000000000103e+00 1.141037099999999960e+01 1.060600999999999905e+00 2.494190999999999825e+00 9.525871000000000421e+00 1.209727099999999922e+01 7.300791000000000253e+00 1.994890999999999970e+00 7.435711000000000404e+00 2.128970999999999947e+00 1.262957100000000032e+01 1.232457100000000061e+01 1.192837100000000028e+01 1.906350999999999907e+00 1.618241000000000041e+00 1.257197099999999956e+01 1.022837099999999921e+01 1.349271000000000109e+00 1.303346600000000066e+01 2.594421000000000088e+00 9.558471000000000828e+00 7.349351000000000411e+00 4.358210999999999835e+00 5.690110999999999919e+00 3.538091000000000097e+00 9.608570999999999529e+00 1.981290999999999913e+00 1.949870999999999910e+00 5.922240999999999644e+00 5.617710000000000203e-01 3.697640999999999956e+00 1.357121000000000022e+00 1.187597099999999983e+01 3.445740999999999943e+00 2.609830999999999790e+00 6.277300999999999576e+00 8.118130999999999986e+00 1.007637099999999997e+01 9.166470999999999592e+00 1.273967099999999952e+01 4.088681000000000232e+00 4.866201000000000221e+00 7.508380999999999972e+00 9.508471000000000117e+00 1.739840999999999971e+00 3.890391000000000155e+00 5.551580999999999655e+00 6.139171000000000156e+00 6.061760999999999733e+00 8.686270999999999631e+00 3.501541000000000015e+00 8.906670999999999339e+00 1.208697100000000013e+01 1.631321000000000021e+00 1.073037099999999988e+01 5.949721000000000259e+00 5.861990999999999730e+00 3.874540999999999791e+00 1.157087100000000035e+01 3.424209999999999754e-01 9.165070999999999302e+00 1.239130999999999982e+00 8.640071000000000723e+00 1.010747100000000032e+01 9.434070999999999430e+00 8.042040999999999329e+00 3.538831000000000060e+00 1.114957099999999990e+01 8.373390999999999806e+00 8.451620999999999384e+00 1.533560999999999952e+00 1.085217100000000023e+01 2.916770999999999781e+00 6.027909999999999657e-01 5.124050999999999689e+00 1.270397099999999924e+01 6.792091000000000101e+00 7.607901000000000025e+00 1.251567099999999932e+01 9.319070999999999216e+00 8.085380999999999929e+00 1.216277099999999933e+01 6.752511000000000152e+00 1.172677099999999939e+01 4.384121000000000379e+00 5.845371000000000095e+00 1.109257099999999951e+01 1.232140999999999931e+00 1.528761000000000037e+00 1.131897099999999945e+01 2.755170999999999815e+00 4.238171000000000355e+00 1.070237099999999941e+01 2.433631000000000100e+00 6.878500999999999976e+00 4.878650999999999627e+00 1.811250999999999944e+00 1.216977100000000078e+01 9.669971000000000316e+00 1.021047100000000007e+01 1.003477099999999922e+01 1.674700999999999995e+00 3.948930999999999969e+00 1.300387100000000018e+01 9.925570999999999700e+00 8.710870999999999142e+00 5.012520999999999560e+00 2.860999999999999828e-03 5.449091000000000129e+00 1.224077100000000051e+01 1.162857100000000088e+01 5.289500999999999564e+00 4.344591000000000314e+00 4.307801000000000435e+00 9.657470999999999250e+00 3.897451000000000221e+00 6.557851000000000319e+00 5.732361000000000040e+00 4.688970999999999556e+00 7.380330999999999975e+00 7.071201000000000292e+00 9.011371000000000464e+00 5.701081000000000287e+00 1.115257100000000001e+01 1.141707099999999997e+01 3.507820999999999856e+00 6.668760999999999939e+00 1.150187099999999951e+01 4.650680999999999621e+00 1.937831000000000081e+00 6.539030999999999594e+00 9.503871000000000180e+00 2.500510000000000232e-01 3.918360999999999983e+00 2.555400999999999812e+00 1.311550999999999911e+00 9.808571000000000595e+00 2.778980999999999923e+00 4.955550999999999817e+00 1.725681000000000020e+00 7.800821000000000005e+00 5.881501000000000090e+00 1.409570999999999907e+00 1.099227100000000057e+01 6.844740999999999964e+00 1.053177100000000088e+01 1.101637099999999947e+01 1.070617099999999944e+01 6.969740999999999964e+00 2.393860999999999795e+00 2.280291000000000068e+00 7.030910999999999689e+00 2.636531000000000180e+00 6.407231000000000343e+00 6.585150999999999755e+00 6.070571000000000161e+00 1.202187100000000086e+01 3.056640999999999941e+00 1.194397099999999945e+01 4.543270999999999837e+00 1.074087100000000028e+01 5.303780999999999857e+00 7.827401000000000053e+00 4.622609999999999775e-01 1.991700000000000068e-02 8.436000999999999195e+00 6.885841000000000101e+00 2.150390999999999941e+00 1.152177099999999932e+01 1.530161000000000104e+00 7.972580999999999918e+00 4.542610000000000259e-01 2.399920999999999971e+00 7.086390999999999885e+00 1.067007100000000008e+01 3.389971000000000068e+00 2.973491000000000106e+00 1.693510000000000015e-01 4.667680999999999969e+00 1.301537100000000002e+01 8.742770999999999404e+00 1.193847099999999983e+01 1.058207099999999912e+01 1.081057099999999949e+01 1.240337099999999992e+01 8.183540999999999954e+00 9.239971000000000600e+00 7.118490999999999680e+00 4.381641000000000119e+00 9.806971000000000771e+00 8.099210000000000020e-01 6.497850999999999821e+00 2.724330999999999836e+00 4.822509999999999852e-01 2.084550999999999821e+00 5.160430999999999990e+00 7.726941000000000059e+00 7.819161000000000250e+00 7.007181000000000104e+00 1.132727099999999965e+01 1.817509999999999959e-01 2.843230999999999842e+00 1.160327099999999945e+01 3.355011000000000188e+00 6.631211000000000411e+00 3.043670999999999793e+00 9.544570999999999472e+00 7.681000000000000327e-03 1.296437099999999987e+01 2.425301000000000151e+00 3.603050999999999782e+00 2.502000999999999920e+00 1.305751000000000106e+00 1.248207099999999947e+01 5.747880999999999574e+00 9.659570999999999685e+00 1.009857099999999974e+01 6.802831000000000294e+00 1.290007100000000051e+01 2.265709999999999946e-01 1.063047100000000000e+01 4.727121000000000350e+00 7.970810000000000395e-01 8.587571000000000510e+00 3.220910000000000162e-01 2.780340999999999951e+00 7.379510000000000236e-01 7.442810999999999844e+00 1.296727100000000021e+01 8.409610999999999947e+00 3.916230999999999796e+00 7.537240999999999858e+00 2.609580999999999928e+00 1.275377100000000041e+01 4.808100999999999736e+00 1.301790599999999998e+01 3.179180999999999813e+00 1.059477099999999972e+01 5.009991000000000305e+00 1.079037100000000038e+01 2.346830999999999889e+00 1.175557099999999977e+01 6.421051000000000286e+00 5.014731000000000272e+00 9.390470999999999790e+00 3.117610000000000103e-01 5.846180999999999628e+00 2.542480999999999991e+00 5.669300999999999924e+00 1.600691000000000086e+00 7.350291000000000352e+00 1.154917099999999941e+01 4.295830999999999733e+00 4.584831000000000323e+00 5.298310000000000519e-01 9.880570999999999771e+00 2.481151000000000106e+00 1.261727100000000057e+01 1.177237099999999970e+01 1.166707099999999997e+01 6.193540999999999741e+00 6.964411000000000129e+00 2.337041000000000146e+00 3.229401000000000188e+00 2.978610999999999898e+00 9.410071000000000296e+00 4.293770999999999560e+00 8.965671000000000390e+00 8.368420999999999665e+00 1.069457099999999983e+01 1.249837100000000056e+01 1.098417099999999991e+01 1.181707100000000032e+01 1.861221000000000014e+00 9.265670999999999324e+00 8.370181000000000537e+00 1.052667100000000033e+01 6.088609999999999856e-01 4.243431000000000175e+00 1.479610000000000092e-01 1.300087100000000007e+01 4.801781000000000077e+00 1.052109999999999990e-01 1.166137100000000082e+01 8.135331000000000756e+00 9.666570999999999358e+00 6.061530999999999558e+00 8.980670999999999182e+00 9.126009999999999955e-01 8.469080999999999193e+00 6.268951000000000384e+00 5.001409999999999467e-01 9.714271000000000100e+00 1.023927100000000046e+01 8.320631000000000554e+00 9.611670999999999410e+00 3.803860999999999937e+00 5.354231000000000407e+00 1.098987100000000083e+01 2.160121000000000180e+00 5.668370999999999604e+00 7.513170999999999822e+00 1.018157099999999993e+01 2.560931000000000068e+00 7.099270999999999887e+00 7.353981000000000101e+00 5.337309999999999555e-01 1.865620999999999974e+00 3.561310999999999893e+00 7.892941000000000429e+00 1.269967100000000038e+01 7.407850999999999964e+00 3.737150999999999890e+00 5.362900999999999918e+00 8.529571000000000680e+00 8.568870999999999682e+00 4.152930999999999706e+00 1.007357099999999939e+01 1.004771000000000081e+00 5.178690999999999711e+00 6.478761000000000436e+00 1.276987100000000019e+01 6.681581000000000437e+00 1.296570999999999918e+00 1.158597100000000069e+01 2.144620999999999889e+00 5.655880999999999936e+00 6.854281000000000290e+00 1.283597100000000069e+01 2.061570999999999820e+00 1.151897100000000052e+01 8.760370999999999242e+00 1.272967099999999974e+01 1.160277100000000061e+01 8.538771000000000555e+00 5.884481000000000073e+00 9.322570999999999941e+00 9.933571000000000595e+00 5.959651000000000032e+00 6.405901000000000067e+00 7.441751000000000005e+00 1.193670999999999927e+00 6.630240999999999829e+00 6.071761000000000408e+00 3.283761000000000152e+00 1.234007100000000001e+01 5.823490999999999751e+00 3.553160999999999792e+00 1.285481000000000096e+00 2.283170999999999840e+00 1.301490999999999953e+00 6.418160999999999561e+00 5.039041000000000103e+00 1.262167099999999920e+01 3.501250999999999891e+00 2.515130999999999784e+00 3.883051000000000030e+00 1.120557100000000084e+01 1.007407100000000000e+01 9.973371000000000208e+00 8.937371000000000620e+00 1.184107099999999946e+01 4.438411000000000328e+00 7.930371000000000059e+00 5.616111000000000075e+00 7.615171000000000134e+00 7.966141000000000361e+00 7.834781000000000439e+00 8.574970999999999677e+00 8.480301000000000755e+00 3.903821000000000208e+00 2.191641000000000172e+00 1.105657099999999993e+01 1.274887099999999940e+01 1.208280999999999938e+00 7.778490999999999822e+00 6.567650999999999684e+00 1.160737100000000055e+01 1.287937100000000079e+01 1.981209999999999916e-01 9.934170999999999196e+00 6.494721000000000188e+00 1.077567100000000089e+01 7.371971000000000274e+00 5.833010999999999946e+00 1.202237099999999970e+01 9.129870999999999626e+00 6.429230999999999696e+00 5.360630999999999702e+00 9.900971000000000188e+00 9.560971000000000330e+00 1.088317100000000082e+01 1.266867099999999979e+01