-7.788267985840738402e+04
-7.788238417928256968e+04
-7.788258182228500664e+04
-7.788585858680702222e+04
-7.788232303808900178e+04
-7.789146825304740923e+04
-7.789085683571059781e+04
-7.789328746907031746e+04
-7.789004968625260517e+04
-7.788860482421492634e+04
-7.789232785518620221e+04
-7.789488116856290435e+04
-7.788934271110656846e+04
-7.789113227196916705e+04
-7.789165621850901516e+04
-7.789144883352950274e+04
-7.788822133978291822e+04
-7.789407270657605841e+04
-7.789542163936002180e+04
-7.788557237663907290e+04
-7.788963876975672611e+04
-7.788699304062497686e+04
-7.788156854870365351e+04
-7.789548174908455985e+04
-7.788242422934138449e+04
-7.789220636690953688e+04
-7.788472523924565758e+04
-7.789350949633738492e+04
-7.789750808040787524e+04
-7.789513349527993705e+04
-7.788935778364606085e+04
-7.788540985652826203e+04
-7.789047303283655492e+04
-7.788966353919882386e+04
-7.788767389582861506e+04
-7.789373022297378338e+04
