-4.056484814482173462e+00 1.536235294296587339e+00 -1.478992248781941576e+00 1.348552975538793941e+00 -7.072241490635032823e-01 -7.953533451871297455e-01 -2.596331040120183342e-01 4.198832924332162042e-01 8.715418230220784990e-01 7.624709899187183115e-01 -6.672352640698636650e-01 9.207887370441559804e-01 -9.581730943201197115e-02 -1.931150601866673533e-01 8.382162095320212503e-01 8.272365696844762306e-01 -8.119379903895943551e-01 -1.569875610839599700e+00 -3.199974690224773322e-01 -3.234890274041198888e-01 -1.162187575929069183e+00 -6.880452605568578850e-01 -1.276722517922463718e+00 4.072699735019482681e-01 -3.429430239717635165e-01 2.043615805644145855e-02 2.171404785529563730e-01 3.207559959398206484e+00 6.888279044238476700e-01 -1.733680092564761521e+00 -2.700538888302307594e+00 -1.103486200580794385e+00 -9.282752758480342647e-01 9.897673267982491918e-01 -5.430427435837402450e-02 -1.335299966088120405e+00 3.188903519097120998e-01 -3.816216746861063602e-01 1.105976057087998177e+00 -5.202370566579896279e-03 -6.009337071485879728e-02 1.042489858361051347e+00 1.797993158136727554e-01 -7.083328088382928600e-01 -9.906754405098809890e-01 -8.646548655249742810e-01 -1.191936270405473230e+00 1.661473739635179303e+00 6.900646051466532427e-01 -6.577088118491994373e-02 1.922750292923741000e+00 1.051557111519151988e+00 -7.010401312288003783e-01 1.132850772213150226e+00 -1.242855944282555553e-01 4.978597155543170172e-01 3.040185757748838369e-01 1.513548906567381946e+00 -3.306084126462172090e-01 7.054202629364336730e-01 -9.602556880529107899e-03 1.603374516697052332e+00 3.494787687480045424e-01 3.112814285852401053e-01 -2.249787442983727237e-01 -1.696753391689336810e-01 -8.777695496141363352e-02 4.430885288232578323e-01 -3.169856785303889479e-01 -6.766218482669922318e-01 2.126780715373608188e-01 -1.238173450818160992e+00 -1.579655059632247560e-01 -1.087500108243754315e+00 4.678379698996135705e-01 -9.158218795466176454e-01 2.257043096704636764e-01 3.477011078753479700e-01 -1.631982155496156661e-01 -8.884015762855415055e-01 -1.282106408387235011e-02 -1.180974628281544758e-01 8.097175855159666202e-01 1.064974157365074836e+00 1.690506124711637970e+00 1.375936254911287016e+00 -1.135399764097951847e+00 1.079806852728621147e-01 2.951646213526751161e+00 1.348988520450318473e+00 2.128256528710178314e-02 1.345725790268945399e-01 6.704640556867020873e-01 2.597928209535997901e+00 -3.259685994978283596e-01 5.497070435286720985e-02 -1.391949086723414775e+00 7.911444489641923372e-01 -2.196853566723597564e-02 -3.331347788213291361e-01 -1.209045934916870985e-01 1.872916138891083770e+00 -1.194941890249464400e+00 9.091077001962337700e-01 -3.604748636571420972e-01 -1.140527572666691247e+00 6.529157609397312489e-01 3.286260919450048057e-01 1.139310926550201053e+00 -1.266013358149844059e+00 -1.423774204284512963e-02 -1.044941148317647839e+00 -1.800114832640800744e+00 1.143685916051087048e+00 1.458154998599184293e-01 -3.451284618395074055e-01 1.012014570071206654e+00 2.846829528065706771e+00 9.338987931472452209e-01 1.159996481633902787e+00 2.717512284334893113e-01 1.325417158939845352e+00 6.326955755666902048e-01 9.840723328252458657e-01 6.160152853187196298e-01 -4.156363438803465371e-01 -6.037932883209464752e-01 9.503996203797236975e-01 1.243054433463014030e+00 2.865376439363068184e-01 -1.234582647846289349e+00 4.325675738176015805e-02 7.161242805023058100e-01 3.301055048262987457e-01 -6.309667656581361417e-01 -2.355603773436510673e-01 -2.608403913122275153e+00 -2.153175662609206231e+00 3.742030130112968256e-01 3.511371304241160951e-01 4.956377680186648260e-01 6.309127724872859444e-02 -4.637072352192402880e-01 -1.567264398253152002e+00 1.246196321785817629e+00 3.285114207345326554e-01 -1.044069544273924066e+00 1.768538083665613270e+00 7.717835263386810252e-02 -1.664102435724569062e+00 -1.420120152169645156e+00 8.572356896294900386e-01 -2.486076985244192739e-01 -2.870806609688568711e-01 3.343431974070227852e-01 1.716662987774820959e+00 -1.142958293796297181e-01 -3.579330708617873280e-01 -1.320847794023899124e-01 -1.719674264046234580e+00 6.392955979272766376e-01 -8.503682725180266022e-01 2.654952197043194406e-01 3.650144037739520841e-02 -3.781578842209010194e-02 -5.034148415037843494e-01 5.853116830492801487e-02 -7.939855181922594873e-01 2.740135422921102126e+00 -1.080898543221143537e+00 2.639915870292442346e+00 1.489872129818582414e-01 -7.201922802603579754e-01 -2.209700856061882490e+00 1.084514028785403816e+00 4.279061634008726189e-01 1.246294023714022536e+00 6.975130916205991571e-01 -1.267393526440908635e+00 -4.837942374375174270e-01 1.386468522771787892e+00 9.498118661484690473e-02 -6.236416921461335194e-01 -9.232893921855297448e-01 8.988227724802937413e-01 -3.205538557925712295e-01 -1.550914237678379548e+00 -8.584693050282469207e-01 -1.127744560912750993e+00 -9.130358319307502191e-01 -1.998616868616287956e+00 2.722681744778287616e+00 2.202947081719542066e-01 -1.985862138999459958e+00 -1.741196456167776185e+00 -1.034458245641924012e+00 1.135777202073227965e+00 -4.580081274808390224e-01 5.905202242639572274e-01 -1.076818716387571762e+00 8.123015444066519208e-01 5.310459752415133683e-02 -1.971556005606871498e+00 -2.724274286208029361e-01 -7.154845899829002098e-01 -1.032741777029564378e+00 2.296859203551556150e-01 -1.141018653411089767e+00 -1.699124977441345052e+00 6.742302079086682776e-01 2.019521481707438948e+00 2.035280288506233493e-01 -1.708657600310106606e+00 4.131310607528999035e-01 -1.505658704533814340e-01 -1.169049850833784737e-01 -1.560740480552430531e+00 -4.529415111723966714e-01 1.196152365717857213e+00 -3.238865199857118848e-01 -1.662830253775204881e-01 2.219831517575393764e+00 4.450441100493824909e-01 2.541339252719650776e+00 -3.471128394234188064e-01 2.528124809819584651e-01 3.805505530205745002e-01 1.163134770411982988e+00 3.573777125330430127e-01 2.730542636233393994e-01 -1.445256801414097625e+00 2.921236231262601055e-02 -3.812046417188733605e-01 -9.058280007325936189e-01 -4.351993552310399194e-01 -1.328329190621029721e+00 4.218460727487876039e-01 7.799606635087663609e-01 -1.078693050747083992e+00 -3.703556139227181521e-01 -2.691209896820752068e-01 4.337950185682614146e-01 2.609546511461598994e-01 4.676209687748633659e-01 -6.301260148548981643e-02 3.361604532716361282e-01 -2.077749774034931551e-01 -1.003533528482336346e+00 -7.142412043913226594e-01 -4.559481594577374231e-01 2.166540257946303338e+00 -8.005901685389187408e-03 3.246904525886368020e+00 4.907084486303843196e-01 -7.997417044255593355e-02 8.888242656801969011e-01 -4.308490483225427270e-01 3.848530374063187098e-01 -5.486801448411698923e-01 -2.130848200910985535e-01 -5.624777139864176601e-01 4.241698359780428085e-01 9.030039007867938228e-01 -2.867181353931487209e-01 4.170921026106012564e-01 -3.690119552995617669e-01 5.863493803709524110e-01 3.470063957437428126e-01 -3.801808283554197754e-01 -1.850911607776614676e-01 1.182166591805646094e+00 8.935422403711499317e-01 -6.328745243615078175e-01 1.416137513043603802e+00 -6.026296069339572847e-01 9.736552503958918470e-01 1.149380910024090235e-01 -1.668783386526939250e+00 -5.608764308052048841e-01 -1.204071364109211340e+00 2.161840280978966911e-01 1.023047174648252511e-01 1.817893498250065520e-01 9.339533005387701259e-02 -1.024922023228439505e+00 -7.709854558514483980e-01 6.128327735626098310e-02 -1.497660516158546784e+00 4.686833486889243061e-01 -4.602994948075841419e-01 1.111657167102782395e+00 -9.150993994985751057e-01 -3.838184254086950409e-01 -3.298797619500776768e-01 -2.989288195360770839e-01 1.447859786469749332e+00 -2.266741298630672030e-01 7.277107007460714705e-01 8.382007829117783526e-01 1.042783478366341221e+00 8.765318204499813470e-01 -4.153308967995371082e-01 8.259721010452332202e-01 -1.533802002063607839e-01 1.171998906403552088e+00 -1.238548831910738501e+00 -1.719389385792415570e-01 -3.697164376239874262e-01 -9.151148261188181143e-01 -7.546291246285786736e-01 -2.312066251566330166e+00 -1.647854090843399399e+00 -3.234622879290321995e-01 3.005727830332952100e-01 -1.043893680803154922e+00 -2.247140234950046001e+00 -1.485161354217076290e+00 1.023048203089601982e+00 -9.092516819851674814e-01 5.191849611574239631e-01 -8.544424429241759267e-01 8.641658416632743700e-01 7.908616275930726580e-01 -1.705050856497316802e+00 1.643156170758762469e-01 6.205095740161504780e-01 -4.565102026552537162e-01 6.928146573152871301e-02 1.246888462814049081e+00 -6.750231361891533277e-01 -4.467780621646842421e-01 -5.821955057602148237e-02 3.870703569558978652e-01 3.217807863225563558e-01 -4.040170135133958618e-01 -4.539205873371459088e-01 -1.571242409393120432e-01 4.147184599758940160e-01 -6.954803772932598438e-01 -4.884582189576203159e-02 -1.214904965285123817e+00 6.003294978557411898e-01 -1.496875815408857946e-01 -5.096183997241283681e-01 -1.198720383767624964e-01 -1.252727952796660382e+00 6.220018424143134439e-01 -3.083164321745551079e-02 4.036328906693476548e-01 8.017224824647475323e-01 9.141537476776855353e-01 1.609598643744387214e+00 1.076700959853050948e-01 1.034323519825135929e+00 -4.948736360959667402e-01 -3.294868973545585916e-02 2.530654775539419865e-01 -1.220862726022930722e-01 9.996696743321651368e-01 -1.041039756058218801e-01 -9.590894355625477763e-01 1.494627128398118288e+00 -2.156348404172495403e+00 4.252903228283518855e-01 -3.961905748434990659e-01 -1.426468720620272801e-01 9.425330724971952012e-01 1.439977297746303231e-01 -6.404022008193671622e-01 1.642009458654040271e-02 -9.529249581134858760e-01 2.240778296761875288e-01 -8.456523547097727356e-01 -6.337271022402652942e-01 4.109759619049669910e-01 1.375760905661192801e+00 -1.673726589873438253e-01 1.003336067743227256e+00 -4.437076505156727912e-01 -6.544203706340884219e-01 1.205621225222947901e+00 1.051529343602714661e+00 9.367619738643270244e-01 3.014027352023631590e-01 2.765306010730089525e+00 -1.735003696581602028e+00 1.140979058419133274e+00 -7.493547631675318010e-01 1.617970670550207712e+00 1.333096530496759857e-01 8.885373305436790325e-02 1.219541178888789296e-01 1.198303350800391964e+00 -1.070906721289818453e+00 -1.585479637215290838e+00 -5.954531431969611877e-01 1.163012900112064124e-01 -3.678194775547857232e-01 -5.913105814410682948e-01 1.596181597898463922e+00 -8.271080145157853059e-01 -2.446440855633440492e+00 -1.549655425466558989e-01 -1.414236953429678811e+00 1.978700587662032273e-01 -1.292706039156130027e+00 -1.865967989133682781e-01 6.072421663865836816e-01 -1.741604233162863169e+00 9.802408745775849086e-01 -7.695728916578736811e-01 5.213837687627117384e-02 9.620081521125040114e-01 -1.317337723697965091e+00 -1.027821199392754625e+00 -9.793435595001231952e-01 2.293285369861951528e-01 -1.459499685663690594e+00 -1.444401138211291569e+00 -6.859312993629061994e-01 1.559665245121500510e+00 -6.888757269466005972e-01 -7.490981670508251034e-01 -1.999536295182764656e+00 1.091238492549283290e+00 3.420091992263934455e-01 -2.434932596932238846e-01 7.934203896706946146e-01 -7.679438405602236895e-01 -1.378102152393389623e+00 -4.839747288943593850e-01 1.508877725957832594e-01 -4.449464081211774724e-01 -2.504768906771837403e-02 4.170463369705472712e-01 -6.799514271360842521e-01 1.833495467743057938e+00 -3.284445720468134322e-01 -5.563096369926324308e-02 2.030662586846859463e-01 1.553306392257378210e+00 1.889284811410148146e+00 -2.494381649141619028e-01 1.628204690419345679e+00 -4.419387313944872497e-01 -4.361583767894733898e-01 -9.738131161430441107e-01 9.645052077091544884e-01 -7.352610029136205094e-01 1.652906308972948546e+00 1.194113994963095449e+00 1.329124690004888532e+00 -5.118424041424795012e-01 2.144053387838906199e-01 -1.453982097823480757e+00 -1.319564299219689874e+00 -2.205744442190254173e-01 2.467035393657709408e-01 -1.056008719900577431e-01 -1.452009547315088911e+00 6.302088043835351039e-01 -7.646152901324811124e-02 1.598235909494143181e+00 -3.539375762188768371e-01 5.884216896902484395e-01 1.530364436852815313e+00 -1.268901221459314554e-01 8.287437504822072754e-01 4.179523937994802374e-01 4.975213583503226289e-01 -1.683918443647245966e-01 8.643540464302377213e-01 3.782237044672707715e-01 5.967947449374185753e-01 2.288127736494076012e-02 1.130472501592370227e+00 -1.347561043857175456e+00 5.041008118839185315e-01 2.767535671575862555e-01 -1.228033533332504312e+00 4.726479900913490018e-01 -7.816462788806403106e-01 -2.270773302941490712e+00 -1.008781150468295307e+00 -5.428756218644422704e-01 5.381216517262558258e-02 -3.852402455744154408e-01 4.818350566666694534e-02 3.604686930090449104e-02 -7.447792276034883585e-01 -8.138174669558541074e-01 2.803222586404432656e-02 -1.613757660561872198e+00 -1.246188608475696125e+00 -6.337286449022896395e-01 -5.315895064947381288e-01 3.813419386390352050e-01 1.335634723747391339e+00 -3.232226610945925227e-01 6.661831685692981564e-02 2.337570054372563322e-01 -7.911583329224111116e-01 2.955303350965667319e-01 1.989193260530576435e+00 8.535795806319231849e-01 8.810297086921355103e-02 1.873511606432459731e-02 1.143501825049521692e+00 -1.051622417544846755e+00 6.701832911982813501e-01 9.245209507015875738e-01 3.612451662279374254e-02 2.586972223839492102e-01 1.322045928196097508e-01 7.856901102669785475e-01 5.249390905080248970e-01 1.449076432586239305e+00 1.168978888380667547e+00 5.938168930098645104e-01 -1.143192778423989031e+00 -4.404901717536791050e-01 2.526181055668978992e-01 -8.529733144563772518e-01 -4.768172913223295839e-01 4.666377788447160779e-01 -2.145455667618985096e+00 1.210600938237355262e+00 4.229598747303248141e-01 -1.520911518188642120e+00 -1.268088238572513848e+00 4.464947265728896886e-01 7.147019461159105358e-01 -1.002478347657722035e-01 -9.043326470103820736e-01 -9.905093472319325132e-01 2.850346797481087435e+00 -3.000534201517843225e-01 1.427811865022754256e+00 6.526787052086652219e-01 6.887353447023902842e-01 4.797329225482372950e-01 5.349175427018060258e-01 -2.678210398162736983e-01 -8.697158254059941251e-01 -2.602388559668893930e-01 -4.577700433084236908e-01 6.465193699663510096e-02 -8.716081574891230144e-01 6.370602806540808238e-01 -7.832100239525953134e-01 2.260904893972109364e-01 2.993278547796933697e-01 5.913979989557781591e-01 -4.729760628818480139e-01 -6.573894808101715670e-01 -3.248018327867904786e-01 3.372881392113920018e-01 -5.357181842924123583e-01 1.146537269692649297e-01 4.540121186172537127e-01 1.156012299845837088e+00 2.341453963129050742e+00 2.510307063439037201e+00 3.626746997037793435e-02 -6.790757093269624844e-01 -7.821697555275493041e-01 1.186993581279648602e+00 1.244406833837641280e+00 5.791256083318782055e-01 8.793631194852277178e-01 6.298174824500403501e-02 6.305476758082041722e-02 5.051035421997069480e-02 -3.317211861864048927e-01 1.450508537165454970e-01 9.463151655600789136e-02 4.528006147075115395e-01 -2.926738906703242993e+00 -1.687496391102248694e+00 3.291577961227100668e-01 -1.593518449023864914e-01 -3.541849163634378655e-02 6.120650420951881943e-01 -6.595142406382933364e-01 9.662247616455628130e-01 -7.232174404899901488e-01 -8.970682515380015709e-02 7.819496690787505200e-01 -6.255905885034862557e-01 9.862387445280237364e-01 1.268669822155671090e-01 -5.581248359745465820e-02 -7.002981107951169459e-01 1.495076043047186554e-01 -8.567703199188292373e-01 9.005644379057170523e-01 -1.459579389868278787e-01 1.528423253805584192e-01 -1.398788221697766287e+00 -1.672493488695355968e+00 2.244624667409104296e-02 2.597477752224905401e-01 -1.332129795628204938e-01 4.517654884892131073e-01 1.475935721091148567e+00 1.672502744667501706e-01 -2.531287266969378669e-01 2.507134321875748029e-02 -7.043568545810232617e-01 1.791107743301647570e-01 -1.121012898059425389e+00 -6.917023979957742652e-01 7.472366882081820094e-01 9.420893000548743457e-01 -4.445448017741873703e-01 8.063149873110581067e-01 -4.987986825064346097e-01 -9.157041230120969155e-01 1.652366891485122169e+00 1.441505047371024917e+00 1.197049166574644247e-01 1.614815926710535088e+00 -2.543604909012657789e+00 -5.645921894010441644e-01 -7.422153233191187693e-01 5.205023945261675333e-01 1.444183622865866656e+00 -9.240648369630727332e-02 4.377231503027779747e-01 2.466228067198330987e+00 -1.057891281790885873e+00 -1.464549332689865757e+00 -2.113292707074567733e-01 -1.226711986198362858e+00 7.357325432723783587e-01 3.330283351416531423e-01 -1.632799252148355418e+00 1.375081620149830375e+00 1.103204921871699051e+00 1.692052386280651133e+00 4.403364197719248918e-01 1.867512193819997002e+00 -1.262660639350387637e+00 -1.269631414817478376e-01 -1.345003310220902915e+00 -2.080192322240056457e-01 1.513632724537368190e+00 1.853611266319121764e-02 -9.242453284199145802e-01 -9.721902356934915002e-01 2.981060664564558760e-01 -9.683906591276655873e-02 1.072353738268602585e+00 5.043795194896403267e-01 4.384857395634519373e-01 2.549701509332651383e-01 4.578626030298810767e-01 -4.052670839737453345e-01 -1.108156352748994378e+00 -1.294480100484063367e+00 1.359364979446366251e+00 2.229275180267420720e-01 -1.255394186995307804e+00 1.638492189238659746e-01 6.177178699728607114e-01 -6.836522733323554535e-01 3.119242044286941740e-01 -1.284151464010768517e+00 7.999273380891488427e-01 -4.516873269466491481e-01 8.160851801315599507e-01 -2.409108434645627905e-01 4.326508775669131723e-01 3.715758595839313647e-03 -2.027114464190993282e-01 -2.252011447402078037e+00 -2.202571700626964890e-01 1.075799531010190879e+00 7.457752730505048389e-01 -1.279317275447319213e+00 4.622530191510098030e-01 8.204082333442948016e-01 -1.718134687345993228e-01 6.148161227051717193e-01 -5.902913960636875235e-01 7.751969231777595670e-01 -5.891030320843096968e-01 -8.128214215088376271e-01 5.958418940270822084e-01 -5.004508735344489478e-01 6.455819456762574848e-01 1.102234073237745804e+00 1.325235124820979271e+00 8.714688036862622278e-01 -9.363274573941521295e-01 -1.605231881774297431e+00 -7.999900730114700709e-01 -9.380670659368761655e-02 1.755686680561929780e+00 -4.310418810755789476e-01 -7.993406122992441354e-02 -8.857065457291073418e-01 -2.386816968394640526e-01 2.878927696805104297e+00 -1.753921875206142511e+00 2.375817788161454780e-01 8.024125666102798204e-01 -3.095176516708021186e+00 1.243858674598343761e+00 2.691993054908416561e+00 -2.218887922637202970e-01 -1.994739644728573014e+00 -1.463178934591621572e-01 6.875634357846047706e-01 4.820160623441861469e-01 -2.503946153692216403e-01 -1.109746323075362362e+00 -1.200566435990025216e+00 7.733452145279369194e-01 -7.773844179282024536e-01 -2.505447678062525108e-01 1.082807844586539447e+00 9.842116866281068743e-01 -7.861451955641440836e-01 -8.297552225494664313e-01 7.582775203160239119e-01 6.125926325074954049e-01 -6.479735860345815501e-01 5.660854862405567678e-01 -2.064174348221181177e+00 1.478656976901995546e-01 1.901090803882037772e+00 2.831227044352039868e-01 8.388317316797129219e-01 1.555742769814406623e+00 1.270210427297261635e+00 4.205101274357526675e-01 9.591151465962859390e-01 -2.633324075462652125e+00 -5.063834374591926757e-01 -8.468180929794609790e-01 -2.346548347353929753e-01 -1.996264823249921161e+00 1.609447462866006262e+00 -1.449941865981865918e+00 -1.824589165656157919e+00 1.354153352907640606e+00 -7.590411380180474010e-01 1.453308982960215490e+00 -1.325960690193070057e+00 2.308144290479910765e+00 -1.159606702362432351e+00 -1.735373935467431350e+00 -1.348309234938956269e+00 -4.224893628129164358e-01 1.325086515045972524e+00 -1.218584214213054961e+00 9.867143986521795807e-01 6.081744484699294073e-01 3.373344190721206393e-01 2.643341094207040665e-01 1.039417389829340843e+00 2.799919232789753742e+00 1.156744550086700046e-01 -5.721265507276753759e-01 -1.516108697086353319e+00 -5.751090306413023656e-01 -7.537246104616700526e-01 -5.806564432806483600e-01 -4.557404143051330125e-01 6.767401190221877805e-02 8.175949320326650893e-01 9.796418074914856750e-03 6.043357911328217646e-01 -1.723550459492599884e+00 3.274685812061127743e-01 7.461856211489659337e-03 2.558083306331292439e-01 1.419703633423087030e+00 -9.775540715519469570e-01 -9.716539035297133697e-01 7.899689405016836474e-01 -5.174751774138361959e-01 2.410034031860201764e-01 4.028435619335861695e-01 -1.108880375459061041e+00 5.977465674064054157e-01 -3.275040624326713834e-01 1.452899663303103939e+00 5.937449021153975298e-02 2.080104904725346981e-01 -6.687794687561777751e-01 -1.330828817321053903e-01 4.655856833441504583e-01 -2.123486103510400014e+00