1.119019499999999923e+01 1.391589500000000079e+01 9.206165000000000376e+00 4.359395000000000131e+00 1.285249499999999934e+01 5.749844999999999651e+00 7.632765000000000022e+00 5.140464999999999840e+00 6.954684999999999562e+00 2.084684999999999899e+00 6.030924999999999869e+00 1.155229500000000087e+01 1.319289500000000004e+01 1.066629499999999986e+01 1.450539500000000004e+01 3.030435000000000212e+00 5.395184999999999675e+00 6.576024999999999565e+00 1.197029500000000013e+01 1.490679500000000068e+01 1.215999500000000033e+01 3.957155000000000200e+00 1.027749500000000005e+01 6.742015000000000313e+00 1.066419499999999942e+01 1.038499499999999998e+01 1.035759499999999989e+01 1.240789499999999990e+01 1.068869499999999917e+01 3.439935000000000187e+00 1.393199500000000057e+01 5.771964999999999790e+00 1.463605000000000045e+00 3.036554999999999893e+00 1.069514999999999993e+00 4.970914999999999750e+00 6.621925000000000061e+00 1.135189500000000073e+01 9.655094999999999317e+00 1.451649500000000081e+01 9.317135000000000389e+00 1.163369499999999945e+01 5.000795000000000101e+00 1.243789499999999926e+01 1.161389499999999941e+01 3.381900000000000184e-02 1.833904999999999896e+00 1.365715000000000012e+00 4.829164999999999708e+00 1.231269499999999972e+01 1.430119499999999988e+01 1.125679500000000033e+01 3.926324999999999843e+00 3.126405000000000101e+00 4.918185000000000251e+00 3.698094999999999910e+00 7.327085000000000292e+00 1.141229500000000030e+01 1.935804999999999998e+00 8.567225000000000534e+00 1.470979499999999973e+01 1.188109500000000018e+01 1.146879500000000007e+01 5.768595000000000361e+00 8.050349999999999451e-01 5.366560000000000219e-01 6.058135000000000048e+00 1.114819499999999941e+01 5.176840000000000330e-01 6.161114999999999675e+00 3.284415000000000084e+00 8.777949999999999919e-01 1.260699499999999951e+01 1.121499500000000005e+01 5.646704999999999863e+00 8.696415000000000006e+00 1.139319500000000041e+01 9.202915000000000845e+00 1.503209499999999998e+01 2.315530000000000088e-01 8.578115000000000379e+00 1.442194999999999894e+00 2.080224999999999991e+00 8.908215000000000217e+00 1.018459499999999984e+01 2.623005000000000031e+00 1.511329500000000081e+01 7.962905000000000122e+00 1.291439500000000073e+01 3.512065000000000214e+00 9.992095000000000837e+00 1.116509500000000088e+01 2.978864999999999874e+00 1.248409499999999994e+01 1.400509500000000074e+01 1.391759500000000038e+01 6.893584999999999852e+00 8.567555000000000476e+00 1.286019499999999915e+01 1.207739499999999921e+01 8.407135000000000247e+00 1.084159499999999987e+01 3.799839999999999884e-01 1.318149499999999996e+01 7.802735000000000198e+00 1.437409500000000051e+01 4.514134999999999565e+00 1.340349499999999949e+01 6.332625000000000171e+00 9.146565000000000722e+00 1.034079499999999996e+01 3.905394999999999950e+00 4.522294999999999732e+00 7.377850000000000241e-01 1.185339500000000079e+01 1.362359499999999990e+01 6.734844999999999970e+00 1.546140199999999965e+01 2.610364999999999824e+00 1.457379500000000050e+01 2.211914999999999853e+00 1.161689499999999953e+01 7.540924999999999656e+00 1.314089500000000044e+01 9.323264999999999247e+00 7.697364999999999569e+00 9.365674999999999528e+00 4.591954999999999565e+00 1.414059499999999936e+01 8.443284999999999485e+00 1.273844999999999894e+00 9.623215000000000074e+00 1.470219499999999968e+01 6.072004999999999875e+00 1.477619499999999952e+01 9.544734999999999303e+00 2.837685000000000013e+00 1.000919500000000006e+01 1.503629500000000085e+01 7.005855000000000388e+00 1.092039499999999919e+01 1.362309499999999929e+01 1.039269499999999979e+01 1.344084999999999974e+00 1.478529499999999963e+01 6.424834999999999852e+00 6.377844999999999764e+00 8.678604999999999237e+00 8.982649999999999801e-01 3.016424999999999912e+00 5.895405000000000229e+00 5.938324999999999854e+00 1.513939500000000038e+01 2.520995000000000097e+00 9.616184999999999761e+00 1.961535000000000029e+00 4.906405000000000349e+00 2.997704999999999842e+00 5.058665000000000411e+00 7.359194999999999709e+00 5.000494999999999912e+00 2.463334999999999830e+00 1.031409500000000001e+01 2.034945000000000004e+00 1.998175000000000034e+00 9.979395000000000238e+00 3.323789999999999800e-01 1.089539500000000061e+01 5.802939999999999765e-01 5.062005000000000088e+00 5.475285000000000402e+00 2.167734999999999967e+00 1.148599500000000084e+01 1.442869499999999938e+01 1.222489500000000007e+01 7.236125000000000362e+00 7.296384999999999899e+00 7.893205000000000027e+00 1.540569499999999969e+01 7.485255000000000436e+00 7.838955000000000339e+00 1.031569499999999984e+01 1.442099499999999956e+01 9.517834999999999823e+00 1.072359499999999954e+01 4.550899999999999945e-01 1.611895000000000078e+00 3.593154999999999877e+00 9.457449999999999468e-01 4.944444999999999979e+00 7.098675000000000068e+00 1.025099499999999964e+01 1.262959500000000013e+01 1.218799500000000080e+01 1.018589500000000037e+01 7.172024999999999650e+00 1.459349500000000077e+01 1.896495000000000042e+00 6.068934999999999746e+00 6.869004999999999583e+00 1.694614999999999982e+00 5.796395000000000408e+00 1.385759499999999989e+01 7.733584999999999710e+00 4.901004999999999612e+00 1.037669499999999978e+01 2.745014999999999983e+00 1.188425000000000065e+00 1.052469499999999947e+01 4.052525000000000155e+00 1.537499500000000019e+01 1.081309500000000057e+01 7.565344999999999764e+00 6.846635000000000026e+00 4.515755000000000408e+00 4.664145000000000429e+00 9.490315000000000722e+00 1.053539499999999940e+01 6.794794999999999696e+00 7.678155000000000285e+00 1.520799500000000037e+01 4.898805000000000298e+00 9.541624999999999801e+00 8.687105000000000743e+00 5.726734999999999687e+00 1.165099499999999999e+01 3.855185000000000084e+00 9.738694999999999879e+00 3.051194999999999879e+00 2.128385000000000193e+00 1.280949500000000008e+01 2.025280000000000136e-01 8.196035000000000181e+00 4.829455000000000275e+00 3.021745000000000125e+00 1.166164999999999896e+00 7.395175000000000054e+00 6.415305000000000035e+00 2.659534999999999982e+00 1.155429499999999976e+01 9.101285000000000736e+00 6.358785000000000132e+00 1.184854999999999992e+00 6.882634999999999614e+00 4.475055000000000227e+00 1.328399500000000089e+01 4.340665000000000440e+00 7.636614999999999931e+00 6.004165000000000418e+00 1.533159500000000008e+01 1.504409500000000044e+01 1.781325000000000047e+00 5.776335000000000441e+00 1.122019500000000036e+01 5.822625000000000384e+00 5.197284999999999933e+00 8.050924999999999443e+00 3.829025000000000123e+00 1.628065000000000095e+00 1.511609499999999962e+01 3.425984999999999836e+00 1.274009500000000017e+01 6.220105000000000217e+00 1.013519499999999951e+01 4.003015000000000434e+00 1.473489499999999985e+01 9.191285000000000593e+00 2.358264999999999834e+00 7.015335000000000321e+00 1.358399499999999982e+01 1.252829499999999996e+01 1.543139500000000019e+01 7.642014999999999780e+00 1.378699499999999922e+01 1.309079499999999996e+01 9.019049999999999567e-01 1.988664999999999905e+00 1.290379500000000057e+01 4.692145000000000010e+00 7.812850000000000072e-01 1.316109499999999954e+01 1.277459499999999970e+01 5.889935000000000365e+00 5.322585000000000122e+00 8.539134999999999920e+00 1.618514999999999926e+00 9.083885000000000431e+00 1.516629499999999986e+01 7.469795000000000407e+00 1.129849500000000084e+01 6.143864999999999910e+00 2.888374999999999915e+00 1.387609499999999940e+01 1.133409499999999959e+01 3.830144999999999911e+00 1.434485000000000010e+00 1.405539500000000075e+01 1.256849500000000042e+01 7.466165000000000163e+00 3.182600000000000012e-02 1.015749999999999986e-01 6.258174999999999599e+00 3.342804999999999804e+00 2.181974999999999998e+00 3.595404999999999962e+00 1.068949500000000086e+01 1.177299499999999988e+01 4.245454999999999757e+00 1.426959500000000070e+01 1.022129499999999958e+01 8.264715000000000700e+00 2.631149999999999878e-01 4.443184999999999718e+00 7.764994999999999870e+00 1.279959500000000006e+01 1.013909499999999930e+01 6.330255000000000187e+00 6.472095000000000375e+00 5.938365000000000116e+00 1.975864999999999982e+00 1.067949499999999929e+01 3.290035000000000043e+00 7.903035000000000032e+00 1.343649500000000074e+01 6.766115000000000101e+00 8.725825000000000387e+00 1.146999500000000083e+01 2.614545000000000119e+00 5.153860000000000108e-01 6.144924999999999748e+00 1.039489500000000000e+01 4.037874999999999659e+00 1.034689499999999995e+01 1.107829500000000067e+01 6.201195000000000235e+00 7.490294999999999703e+00 5.035415000000000418e+00 1.321949500000000022e+01 6.864864999999999995e+00 1.083429499999999912e+01 9.047745000000000815e+00 1.068069500000000005e+01 6.720114999999999839e+00 9.925694999999999268e+00 9.284285000000000565e+00 2.636775000000000091e+00 5.047715000000000174e+00 1.053789500000000068e+01 5.723675000000000068e+00 1.170959500000000020e+01 1.082479499999999994e+01 8.374164999999999637e+00 4.895995000000000097e+00 1.325019499999999972e+01 3.557104999999999961e+00 1.104369499999999960e+01 7.805184999999999818e+00 4.060484999999999900e+00 8.983235000000000525e+00 6.308205000000000062e+00 4.220774999999999721e+00 7.107344999999999580e+00 1.156799499999999981e+01 1.121334999999999971e+00 1.515269499999999958e+01 2.109665000000000123e+00 6.364804999999999602e+00 3.656814999999999927e+00 1.245839499999999944e+01 9.083085000000000520e+00 3.367055000000000131e+00 1.500239499999999992e+01 9.499195000000000277e+00 1.221719500000000025e+01 3.510745000000000005e+00 6.333414999999999573e+00 1.140219500000000075e+01 7.106975000000000264e+00 3.094485000000000152e+00 1.462539499999999926e+01 1.032819499999999913e+01 4.036635000000000417e+00 2.670434999999999892e+00 1.362449499999999958e+01 2.172235000000000138e+00 8.800214999999999677e+00 9.531549999999999745e-01 1.185949500000000079e+01 7.148344999999999949e+00 1.041449500000000050e+01 1.086329500000000081e+01 1.392099499999999956e+01 7.719534999999999592e+00 3.646039999999999837e-01 9.748585000000000278e+00 4.815414999999999779e+00 3.705334999999999823e+00 4.477725000000000399e+00 7.306865000000000165e+00 1.045939500000000066e+01 1.357425000000000104e+00 7.937549999999999883e-01 8.123374999999999346e+00 2.555225000000000080e+00 9.963594999999999757e+00 6.721275000000000333e+00 6.298115000000000130e+00 2.592084999999999972e+00 1.151869499999999924e+01 2.983084999999999987e+00 1.480809499999999979e+01 5.360244999999999926e+00 2.960824999999999818e+00 6.169744999999999813e+00 5.713494999999999990e+00 3.652355000000000018e+00 8.346244999999999692e+00 1.181014999999999926e+00 1.379649500000000018e+01 3.951095000000000024e+00 1.267809500000000078e+01 9.989494999999999791e+00 6.455955000000000332e+00 1.198929500000000026e+01 1.340059499999999915e+01 1.006709500000000013e+01 6.749975000000000058e+00 1.177329499999999918e+01 5.053485000000000227e+00 1.302135000000000042e+00 2.917804999999999982e+00 1.007609500000000047e+01 1.468459499999999984e+01 3.036414999999999864e+00 1.344189500000000059e+01 4.673314999999999664e+00 5.615565000000000140e+00 6.285469999999999668e-01 1.343469499999999961e+01 9.747685000000000599e+00 1.546194299999999977e+01 5.278855000000000075e+00 5.958355000000000068e+00 9.619775000000000631e+00 1.499699500000000008e+01 1.060309499999999971e+01 1.172899499999999939e+01 8.202650000000000219e-01 2.700124999999999886e+00 1.803604999999999903e+00 3.568055000000000199e+00 1.216939499999999974e+01 1.141939499999999974e+01 1.541895000000000016e+00 1.172639500000000012e+01 4.759764999999999802e+00 1.490289499999999911e+01 5.035415000000000418e+00 6.096334999999999837e+00 3.797925000000000217e+00 4.849010000000000264e-01 8.080925000000000580e+00 5.621274999999999800e+00 3.853934999999999889e+00 4.232675000000000409e+00 8.685484999999999900e+00 1.135919499999999971e+01 5.968085000000000306e+00 8.417175000000000296e+00 1.521239500000000078e+01 1.925864999999999938e+00 4.696234999999999715e+00 9.230650000000000244e-01 1.506869499999999995e+01 1.176299500000000009e+01 4.426994999999999791e+00 4.109255000000000102e+00 5.141505000000000436e+00 8.351445000000000007e+00 9.538384999999999891e+00 1.291009500000000010e+01 4.583355000000000068e+00 1.362339500000000037e+01 1.220719500000000046e+01 5.031484999999999985e+00 1.010579500000000053e+01 1.282479499999999994e+01 6.505715000000000359e+00 1.345884999999999998e+00 1.231719499999999989e+01 8.210874999999999702e+00 8.201285000000000380e+00 5.171325000000000394e+00 7.321584999999999788e+00 4.927744999999999820e+00 1.441894999999999927e+00 1.035129500000000036e+01 2.685944999999999805e+00 8.077545000000000641e+00 7.629650000000000043e-01 8.521604999999999208e+00 8.451375000000000526e+00 4.893500000000000072e-01 6.283125000000000071e+00 1.122019500000000036e+01 5.921440000000000037e-01 1.153639500000000062e+01 1.350879499999999922e+01 3.118259999999999921e-01 8.794964999999999478e+00 6.520414999999999850e+00 6.960144999999999804e+00 3.805120000000000169e-01 9.135305000000000675e+00 1.088619500000000073e+01 1.048029499999999992e+01 1.302769499999999958e+01 1.517919499999999999e+01 1.304609499999999933e+01 6.915655000000000108e+00 4.142394999999999605e+00 1.538974999999999982e+00 4.932174999999999976e+00 1.408929499999999990e+01 8.801584999999999326e+00 1.415709499999999998e+01 1.006869499999999995e+01 8.065644999999999953e+00 4.696739999999999804e-01 7.710494999999999877e+00 6.102325000000000443e+00 8.501525000000000887e+00 5.674799999999999844e-01 1.090169500000000014e+01 2.854705000000000048e+00 8.707549999999999457e-01 1.325309500000000007e+01 7.819749999999999757e-01 5.404844999999999899e+00 4.188284999999999592e+00 7.867865000000000109e+00 9.338214999999999932e+00 1.334359500000000054e+01 1.544229400000000041e+01 1.543125000000000080e+00 1.394000000000000057e-03 1.562885000000000080e+00 3.362495000000000012e+00 1.505449499999999929e+01 1.744564999999999921e+00 1.311609499999999962e+01 7.743034999999999890e+00 6.998224999999999696e+00 1.333129500000000078e+01 2.580295000000000005e+00 5.621484999999999843e+00 1.111879500000000043e+01 1.700004999999999988e+00 5.890400000000000080e-01 1.079045000000000032e+00 8.871064999999999756e+00 1.158689500000000017e+01 7.953744999999999621e+00 1.513439499999999960e+01 1.057729499999999945e+01 5.287925000000000431e+00 1.437489500000000042e+01 1.025309500000000007e+01 1.703734999999999999e+00 9.559974999999999667e+00 7.183455000000000368e+00 1.424989500000000042e+01 7.602624999999999744e+00 8.301574999999999704e+00 9.056385000000000574e+00 5.593214999999999826e+00 1.152984999999999927e+00 7.707625000000000171e+00 1.427949500000000072e+01 5.196534999999999904e+00 1.278779499999999913e+01 1.314919500000000063e+01 1.468519500000000022e+01 1.384719499999999925e+01 1.707135000000000069e+00 1.047359499999999954e+01 9.540435000000000443e+00 6.605495000000000339e+00 1.308349499999999921e+01 9.724394999999999456e+00 2.470544999999999991e+00 1.302339500000000072e+01 1.481129499999999943e+01 6.697454999999999714e+00 8.893594999999999473e+00 5.365904999999999703e+00 1.778624999999999901e+00 3.298764999999999947e+00 1.325469499999999989e+01 5.120305000000000106e+00 1.455239500000000064e+01 5.553304999999999936e+00 2.764944999999999986e+00 1.338439499999999960e+01 6.841944999999999943e+00 6.515475000000000350e+00 2.167625000000000135e+00 5.896214999999999762e+00 1.286789500000000075e+01 6.656164999999999665e+00 2.025595000000000034e+00 3.447930000000000161e-01 1.486579500000000031e+01 1.226879500000000078e+01 7.492494999999999905e+00 4.773654999999999760e+00 3.340784999999999894e+00 9.301949999999999941e-01 3.623075000000000045e+00 2.198205000000000187e+00 4.838754999999999917e+00 8.585324999999999207e+00 1.132439500000000088e+01 1.489979499999999923e+01 7.997004999999999697e+00 1.380059499999999950e+01 4.516754999999999853e+00 2.670545000000000169e+00 3.860230000000000050e-01 3.998025000000000162e+00 9.607395000000000351e+00 1.103339500000000051e+01 1.646994999999999987e+00 1.315079500000000046e+01 1.130839500000000086e+01 4.503124999999999822e+00 2.629719999999999835e-01 7.588474999999999859e+00 3.458934999999999871e+00 1.313479500000000044e+01 1.351149500000000003e+01 1.506049499999999952e+01 6.714615000000000222e+00 5.070095000000000240e+00 5.882884999999999920e+00 9.810294999999999987e+00 9.520944999999999325e+00 1.535079499999999975e+01 6.003375000000000128e+00 1.230929500000000054e+01 1.529979499999999959e+01 5.655515000000000292e+00 8.011905000000000499e+00 1.334359500000000054e+01 3.047215000000000007e+00 6.628885000000000360e+00 6.090334999999999610e+00 1.524294999999999956e+00 1.040989500000000056e+01 1.483739500000000078e+01 9.888795000000000002e+00 7.465955000000000119e+00 1.183535000000000004e+00 1.137779500000000077e+01 7.540090000000000403e-01 7.716535000000000366e+00 2.435064999999999813e+00 2.472795000000000076e+00 7.889194999999999958e+00 1.576025000000000009e+00 1.243269500000000072e+01 1.385419500000000070e+01 6.019985000000000142e+00 5.025985000000000369e+00 1.426109499999999919e+01 5.537415000000000198e+00 9.560415000000000774e+00 3.767795000000000005e+00 1.144559500000000085e+01 1.373079500000000053e+01 1.277339500000000072e+01 1.169819500000000012e+01 1.260649500000000067e+01 5.874225000000000030e+00 6.533145000000000202e+00 1.516489499999999957e+01 7.209060000000000468e-01 1.495859500000000075e+01 5.322655000000000136e+00 5.845569999999999933e-01 2.262500000000000067e-01 1.450549499999999981e+01 8.050155000000000172e+00 1.404099500000000056e+01 6.867655000000000065e+00 9.910795000000000243e+00 1.103839499999999951e+01 3.230094999999999938e+00 2.194795000000000051e+00 1.023919500000000049e+01 7.277224999999999611e+00 5.483024999999999594e+00 1.157569499999999962e+01 1.115389500000000034e+01 1.051949499999999915e+01 6.100750000000000339e-01 6.069295000000000329e+00 1.128419500000000042e+01 7.081954999999999778e+00 5.434264999999999901e+00 8.059834999999999638e+00 1.321679499999999940e+01 9.232224999999999682e+00 1.109809500000000071e+01 2.493644999999999889e+00 3.172344999999999970e+00 1.210019499999999937e+01 1.509779499999999963e+01 5.678245000000000431e+00 1.360779499999999942e+01 1.722374999999999989e+00 4.742555000000000298e+00 6.078554999999999708e+00 1.409519500000000036e+01 1.218929499999999955e+01 1.029059499999999971e+01 9.573454999999999160e+00 1.776964999999999906e+00 3.134825000000000195e+00 1.501009499999999974e+01 1.276799500000000087e+01 1.251339499999999916e+01 1.361819500000000005e+01 6.969644999999999868e+00 1.483729499999999923e+01 2.625224999999999920e+00 4.458795000000000286e+00 1.218995000000000051e+00 8.874885000000000801e+00 5.545795000000000030e+00 6.617784999999999584e+00 1.306405000000000038e+00 1.055499499999999991e+01 7.448224999999999874e+00 1.181449500000000086e+01 3.241894999999999971e+00 8.350345000000000795e+00 7.855915000000000425e+00 4.419184999999999697e+00 3.681035000000000057e+00 7.405884999999999607e+00 9.135250000000000314e-01 3.948655000000000026e+00 4.421045000000000336e+00 1.108839500000000022e+01 5.696724999999999817e+00 4.835655000000000037e+00 7.531435000000000102e+00 2.551614999999999966e+00 3.758764999999999912e+00 9.853395000000000792e+00 2.490384999999999849e+00 1.478969500000000004e+01 7.584849999999999648e-01 1.855024999999999924e+00 1.096219499999999947e+01 1.025429500000000083e+01 3.314684999999999881e+00 9.295035000000000380e+00 1.109139500000000034e+01 8.091955000000000453e+00 1.361329500000000081e+01 1.170469499999999918e+01 1.067395000000000094e+00 7.317734999999999879e+00 1.219549499999999931e+01 9.093804999999999694e+00 1.511029500000000070e+01 8.160244999999999749e+00 1.193039500000000075e+01 9.910595000000000709e+00 1.465209499999999920e+01 9.875294999999999490e+00 1.304599499999999956e+01 1.082829500000000067e+01 1.320929499999999912e+01 3.587854999999999794e+00 1.179099500000000056e+01 1.476809500000000064e+01 1.686034999999999950e+00 1.407859499999999997e+01 1.187029500000000048e+01 6.721834999999999560e+00 1.014009500000000052e+01 1.524899500000000074e+01