-7.780513273841750924e+04
-7.780896267686848296e+04
-7.779814315902651288e+04
-7.779243019895786711e+04
-7.780810737005363626e+04
-7.779967415731208166e+04
-7.779206245905483956e+04
-7.780151340579558746e+04
-7.780554855774543830e+04
-7.780423813438517391e+04
-7.779494711137183185e+04
-7.780406799818448781e+04
-7.780784122039405338e+04
-7.780010614726554195e+04
-7.780737804597719514e+04
-7.780116159332543612e+04
-7.779679886195497238e+04
-7.779433307890032302e+04
-7.779231163215318520e+04
-7.780669119253185636e+04
-7.779931183481408516e+04
-7.780932474670637748e+04
-7.779330503720970592e+04
-7.779831115510872041e+04
-7.780533491408221016e+04
-7.781558105666005576e+04
-7.780262786029216659e+04
-7.781413683482252236e+04
-7.781388784135117021e+04
-7.780454301038627455e+04
-7.779002123957932054e+04
-7.780434053669328569e+04
-7.779265624491832568e+04
-7.780456844020524295e+04
-7.780938365243244334e+04
-7.780100182010036951e+04
-7.779533884207316441e+04
-7.780269596974807791e+04
-7.780570796288161364e+04
-7.780885479761667375e+04
-7.779576451609400101e+04
-7.779935607891777181e+04
-7.779656568699375202e+04
-7.780890908328183286e+04
-7.778911155836228863e+04
-7.780439177986253344e+04
-7.780062787237447628e+04
-7.780119705576590786e+04
-7.781544229653412185e+04
-7.780204160557116847e+04
-7.779733234221281600e+04
-7.780085483786069381e+04
-7.780572627395806194e+04
-7.780317306977606495e+04
-7.780611591932320152e+04
-7.780704453800944611e+04
-7.779982099038331944e+04
-7.780344917689976864e+04
-7.780654328269310645e+04
-7.781439629959026934e+04
-7.780777845883362170e+04
-7.779819362348990398e+04
-7.779890527143227519e+04
-7.779869626697510830e+04
-7.781660229749591963e+04
-7.781597859878517920e+04
-7.781339646791153064e+04
-7.779493146375777724e+04
-7.781470321159568266e+04
-7.780014865462628950e+04
-7.779535234873587615e+04
-7.779249316437171365e+04
-7.781071574276986939e+04
-7.780217143111450423e+04
-7.782131894536905747e+04
-7.781873118095786776e+04
-7.779918067353997321e+04
-7.780136660753996694e+04
-7.779492407583601016e+04
-7.781021768041314499e+04
-7.779894467195715697e+04
-7.780973618553375127e+04
-7.781195860510438797e+04
-7.779076760137536621e+04
-7.780406404185720021e+04
-7.779548356900157523e+04
-7.779778550396148057e+04
-7.780212356267879659e+04
-7.779667694301049050e+04
-7.779126202177722007e+04
-7.780542123711708700e+04
-7.780036365461868991e+04
-7.781198348454679945e+04
-7.780363227651796478e+04
-7.780370901967027748e+04
-7.779801301115001843e+04
-7.780769879190513166e+04
-7.779824856787231693e+04
-7.779735038858269399e+04
-7.780047311424027430e+04
-7.780185988444412942e+04
-7.780155841726656945e+04
-7.781504930799079011e+04
-7.780160362817365967e+04
-7.779956642740101961e+04
-7.779989018491693423e+04
-7.779154968591802754e+04
-7.780435727426916128e+04
-7.780853665082958469e+04
-7.781190225761051988e+04
-7.780862632014018891e+04
-7.778906857950083213e+04
-7.779198826232213469e+04
-7.779769830302101036e+04
-7.780185669681943546e+04
-7.780688064527808456e+04
-7.780982291293460003e+04
-7.780803357461828273e+04
-7.780731091922790802e+04
-7.780893024406726181e+04
-7.778900343027886993e+04
-7.781009162983755232e+04
-7.780068246955334325e+04
-7.781979246263076493e+04
-7.779147790018261003e+04
-7.779092790828242141e+04
-7.780451871899404796e+04
-7.779359581128493301e+04
-7.780264633476400923e+04
-7.780269975773323677e+04
-7.780348331183397386e+04
-7.780751339180872310e+04
-7.779537818351868191e+04
-7.779725781922413444e+04
-7.779870643598379684e+04
-7.781229896376605029e+04
-7.779847818643989740e+04
-7.781558641391535639e+04
-7.779417832252425433e+04
-7.779647587395126175e+04
-7.780690246983298857e+04
-7.779296637092551100e+04
-7.780480723870103247e+04
-7.779516613548157329e+04
-7.781266186134415329e+04
-7.779567733044331544e+04
-7.779938262487930479e+04
-7.781490177853367641e+04
-7.780356987203832250e+04
-7.780305788014245627e+04
-7.780244807565823430e+04
-7.780272950797819067e+04
-7.780632714366300206e+04
-7.781590242502772890e+04
-7.781848522701858019e+04
-7.780577361491462216e+04
-7.781624317318035173e+04
-7.780764816013399104e+04
-7.779200043319817632e+04
-7.780906479016694357e+04
-7.780011371222281014e+04
-7.781202729805889248e+04
-7.780832177337777102e+04
-7.780682183246196655e+04
-7.780974176314349461e+04
-7.780163846413134888e+04
-7.779009424751219922e+04
-7.781814155382759054e+04
-7.780453422083803162e+04
-7.780747816986072576e+04
-7.780050300614787557e+04
-7.780586145362598472e+04
-7.780867626018902229e+04
-7.779451000157077215e+04
-7.779908912372527993e+04
