-8.482463409036160584e+00 4.273490052997666488e+00 -1.549639998846316091e+00 -1.262087797518701482e+00 -2.131768655918811761e-01 2.686486779923051404e+00 2.807338408685238651e+00 2.114167910663014904e+00 -6.374834842694109938e+00 -2.971556323832909907e+00 -5.679556554126031997e+00 -3.885099691569650737e+00 -8.263629087580533217e-02 -1.890844442716705265e+00 -5.663392541435523064e+00 -4.337478645323857407e+00 -3.746614921649157548e+00 -1.819020669969146686e+00 -1.909486999059572199e+00 2.693787170842665724e+00 2.589117038273929694e+00 -1.842889765250307621e-01 -1.861443361416440734e+00 6.711227723710738724e-01 -8.624213480241401442e+00 -5.733240164129965954e+00 1.969473411874079982e+00 -6.772080598362222315e-01 -4.198658603523417021e+00 -2.601442393627330096e-01 2.746963759261283666e+00 5.979352863940434748e-01 2.986882671044228665e+00 -3.082459839421126113e-01 1.075644750587087195e+00 5.609062556043411973e+00 -4.633417271636185220e+00 -4.854827838672376217e+00 4.548164625967183738e+00 -2.726610390733479328e+00 4.127860186801337594e-01 -1.327283265768561149e+00 -4.995192599379803866e+00 -1.852412617926248339e+00 4.458124585816138463e+00 -2.230695971991791815e+00 -4.300853791984518004e+00 -2.822377306539364472e+00 6.065006601735750680e-01 -8.910354145816790084e-01 3.689761141185306847e+00 2.437110835710535994e+00 4.880840719946624162e+00 7.438883402844609805e+00 -1.473473632500382102e+00 -5.935073321636569199e-01 -2.638907483549231880e+00 -2.317807525400061408e+00 -2.388035671393829773e+00 -2.159827621257943697e+00 -5.697698773752354340e-01 -1.302546680209074603e+00 1.091472462956300404e+00 1.568869795199762995e+00 2.592031641058487601e+00 -5.477872520615109764e+00 2.333745795214348995e+00 5.578697825198640770e-01 -5.156171952717816254e+00 -1.756033265296720103e+00 -3.540118811063800663e+00 2.500089498631491783e-02 -3.003030742893818772e+00 -6.927904889435733127e-01 7.011645726320930194e+00 -1.044338481686825526e+00 -2.276573197932145465e-01 3.123479222646990738e+00 -8.163926840950685992e-01 -2.824950466795880022e+00 -6.265804633024054660e-01 2.043125753341096473e+00 3.534566770438381855e+00 -6.529270737945759295e-01 3.009806628725174793e+00 -1.709182619619039611e+00 3.755620982546961084e+00 1.886971332594388207e+00 1.630567534419883113e+00 -1.044359564734490764e+00 1.145241433592245756e-01 -1.039961949523915186e+00 -2.470541350218244947e+00 1.409026869552977290e+00 1.565142723749078923e+00 -3.322075875226635056e+00 -2.873094377470589933e+00 1.613444500170941431e+00 -1.561380171071836021e+00 -8.101855263300011822e-02 3.114526126478688095e+00 -6.197063613221702738e-01 -1.309226920994924104e+00 2.624240881463633990e+00 -5.125561424390507881e-01 -1.828801147203144017e+00 -2.671154776284310639e+00 1.907193574850128082e+00 -3.271768123952520924e+00 -2.054445807275334879e+00 -5.056856914256064428e+00 2.250276466845427148e+00 -3.394368103008902349e+00 2.610125523941382752e+00 1.258570528103320485e-01 9.772573662226086144e-01 -2.632809854787888926e-02 3.192854276541326808e+00 1.538764231575072972e-01 5.313385668054537714e-01 -5.971130475350970579e-02 1.050037075204551584e+00 2.468019612029205945e+00 -2.860068139337486937e+00 3.939177194610454236e-01 -2.910030334318160161e+00 -1.212902589977595397e-01 -7.193062780377409426e-01 9.351632617864880093e-01 -1.964309093637432779e+00 -2.820367732142389894e+00 3.939582914722842943e+00 -2.602578307097881627e+00 1.973963586806113168e+00 5.978012290641326665e+00 -5.387114628402093208e-01 3.117188246911937632e+00 4.738970321103490035e-01 1.987822862432332416e+00 -2.821127750299689541e-01 2.151349150772447150e+00 -3.019704862493691966e+00 -2.410197039814101938e+00 -1.102618196081794011e+00 -3.441556591669902243e+00 6.658324700691095055e-01 -7.236555565048884420e-01 -7.855493166462284016e+00 -6.375441108869655871e+00 -1.168577282033677278e+00 -3.551706773969590447e+00 1.434567182027119081e+00 6.353018516346603306e+00 -1.293309734228302199e+00 2.100502496231181127e+00 2.177552293696358721e+00 -4.611568035165494628e+00 -6.590097901563504723e-02 -8.630321393416236830e+00 1.271265093901201348e+00 -2.528207085127546772e-01 1.752266598854079538e+00 1.634327515993752256e+00 6.273646498314195963e-01 -2.121362886344302812e+00 -1.767727671882186158e+00 -4.441657697148193584e+00 -2.698151361709381302e+00 5.172266031396556940e+00 -8.269491203272836266e-01 -2.235387721428331975e+00 5.846188735341716125e+00 3.425208487977828842e-01 1.204515650772206792e+00 -2.683409169184593490e-01 -4.732064851662094007e+00 -8.048746552010462851e-01 1.535615144162822965e+00 2.521761843190064134e+00 -1.202861402861493234e+00 -3.052494658040646236e+00 -1.238685614610225416e+00 1.079047348791995597e+00 -3.860682951269867047e+00 -6.131104527269820581e-01 -6.548167319301960276e+00 5.012108916917491080e-03 -1.775291343787279041e+00 -2.664487905236004650e+00 -1.058855959776741518e+00 3.213099658727430974e+00 -2.111549498987120299e-01 -2.335266345749623940e-01 -1.614916713962788686e+00 2.092659088279017254e+00 1.378429196742539276e+00 -9.696504997808357007e-02 -2.438822162116148107e+00 -5.903562392907751644e+00 3.158364467443605328e+00 2.916957915248570843e-01 3.187394281416690678e+00 2.298541733599381409e+00 1.403383811868125441e+00 5.429175308494353480e+00 -2.098375679520360304e+00 -1.567116816919494893e+00 -8.823826232874375508e-01 5.503883859227334252e-01 -6.365578870548371793e-01 -2.531389596883656168e+00 2.068221779152242590e+00 9.654215489515824977e-01 -1.254773522640868721e+00 -1.775354078709600270e+00 -1.987353378956273620e+00 4.596130102067751411e-01 1.382497710721266315e-01 1.650663792610306047e+00 3.704393804706370474e+00 1.994821405815860205e+00 -9.141588898844332789e-01 8.499872349980269748e-01 -2.202010685870797957e+00 1.391089823975885320e+00 -1.925677751225167933e+00 3.636524388947742104e+00 -2.548286888256377392e+00 -2.363104710419282384e+00 5.949429334434610972e+00 -3.653424765644511130e+00 2.575073157425470161e+00 1.942063393026499440e+00 -2.006085923917224179e+00 -4.923744207724822353e+00 2.679014125077392006e+00 -3.523129474190297206e+00 -1.034766778046781965e+00 1.236009610218757215e+00 4.135151835969479994e-01 3.558305253668152535e+00 5.733528127707833377e+00 -6.057498979884207158e-01 3.294998042934951243e+00 2.566312379789528642e+00 2.699163347997315388e+00 -3.621393959813507646e+00 -6.654838284516199076e-01 -2.156059926373953051e+00 -1.006268668251402154e+00 4.154465964513588405e-01 8.206715143297736992e-01 5.589043945174877459e-01 5.160461581586690549e-01 1.239828212949549258e+00 2.459111253059607372e-01 3.146622752556061275e+00 -5.265088005398072646e+00 1.466400527119013475e+00 -2.247589663819788974e+00 -9.703138444512801608e-02 2.608682106507321574e+00 2.081993123043077709e+00 -9.738311138666609634e-02 -7.863735609658064618e+00 7.253269793861390369e+00 1.552245555005341560e+00 -6.197807690538086334e+00 1.547348631519570805e+00 1.983306976466561400e+00 1.722361581292547184e-01 6.762819484009736648e+00 6.226025035845044187e+00 7.433923744436519154e-01 1.103767479289889941e+00 -1.744337316049230147e+00 -8.219508953685845942e-02 4.901059362657641749e+00 -2.713556384683939449e+00 4.934863201375228492e+00 -1.030601590581199600e+00 3.759462210987443154e-01 -1.712830501085810253e+00 -4.055283594985925610e+00 3.871343774299059071e+00 4.379596918131691274e-01 -2.828367463179681796e+00 -1.851240709008463159e-01 -3.256977080463630436e+00 1.683354857787705550e+00 1.564011438264599541e+00 -9.217960953460172524e-01 -6.296230041908448705e+00 2.098238896820873389e+00 5.082303638567398529e+00 -3.000212813596116135e+00 6.407096019387406471e+00 1.129293290741003197e+01 -9.491528409316924098e+00 5.621074236785206679e+00 -2.028761513012259599e+00 -3.929378719652840690e+00 1.036592261442191631e+00 3.111215059553887219e+00 5.062154415647476036e+00 5.956833597930527802e+00 -1.076940586687490597e+00 7.597199093087348976e-01 -1.368870862840039782e-01 5.179752055979760073e+00 5.137839985662505882e+00 -4.676433373742155730e+00 1.051373020517586632e+00 -1.601459558904233971e+00 -3.011956071145684977e+00 -2.217194079734532863e+00 -5.938893981250060738e-01 7.632963141017132802e-01 -1.339486750822042715e+00 -1.578564397581074585e+00 -1.219098949108492758e-01 2.160039994396620866e+00 2.667604596745745127e+00 1.863766096204346745e+00 1.295753825095451894e+00 -8.044375676274975184e-01 1.042312452228258080e+00 1.853966078584708410e-01 1.543986656747968755e+00 3.150596135709956780e+00 -3.161741868835450830e+00 -5.352390334676679906e+00 -6.004652521138786891e-01 2.238765637040851963e+00 2.244505882433233790e+00 -1.253882892432178542e+00 -2.078841978748128483e+00 1.140685438413843455e-01 -5.038014326070713977e+00 -6.696994095433291827e-01 6.565446162415353726e-01 -2.377483863147687448e-01 2.595724259723962701e-01 3.201987864166471631e+00 2.226094725394010432e+00 -1.121459755825794380e+00 -6.036554771801099228e-01 1.286394494594085947e+00 3.943733189788856563e+00 -1.374850220846187021e+00 -2.920752863828323775e+00 -2.273450335774308328e+00 -2.068267544792296297e-01 6.364807539536225800e-01 -2.669308209841235513e+00 7.819033892180219381e-01 -6.076211470238841450e-01 -6.423079026400399516e-02 -7.746986433439139175e-01 1.748732360156431298e+00 1.982762930992661987e+00 1.553234401362910966e-01 -2.186721876768737083e+00 4.838231880615066594e+00 -1.186780179699622184e-01 1.757836637203115115e+00 -9.486600118369993562e-02 -2.068061342301716454e+00 -2.098438928663356240e+00 7.762613599745195048e-01 5.570125766550336754e-01 -1.652525785673623959e+00 -4.557550695943638708e+00 3.485762086196601217e+00 2.628787106449216093e+00 1.640390691969885850e+00 -4.274050553533157881e+00 -2.089295056624715929e+00 4.080986915413967075e+00 3.454234188185515642e+00 -6.158740803214296733e+00 1.230268850605700237e+00 1.099585322542040444e+00 1.246368071491188445e-02 -4.994579134114811025e-01 -4.691620881371288965e-01 -1.774958128790032896e+00 -1.349277512469535312e+00 3.832527826664554049e-01 1.936763834752389446e+00 2.852174337759196376e+00 -2.063301201515433281e+00 2.253101081011902096e+00 -1.923627553394887113e-01 -2.889619373074781894e+00 3.007985259095163205e-02 2.537327303015147972e+00 1.027099747786061723e+00 -2.786947502048175984e-01 -2.031188634597142606e+00 3.116291960275825446e+00 -7.151745149160181336e-01 4.678616754727200622e+00 5.577569110817535147e+00 -1.203430645148456241e-01 3.992269450838412226e+00 -3.505328182871342957e+00 3.570687687516452158e+00 -1.133742945083864750e+00 5.645135136378053309e-01 -1.102953467961739653e+00 1.896737411649491944e+00 -1.033908029519927219e+00 1.176997491316723199e+01 9.984417153608304840e-02 3.047645042856954145e+00 2.493843260095141900e+00 1.935550273959947942e+00 1.555346305674163876e+00 1.419469148795394986e+00 2.202952223926289699e-01 2.811421320842858229e+00 -1.786968266869803035e+00 3.244067056203024269e+00 -1.444534321366055307e+00 -6.538932944424560856e-02 -2.133229556855813946e+00 -5.721918567533703648e-01 -3.623787657054530875e+00 -1.685849856501656641e+00 -2.750432177712562432e+00 -4.114735218298680053e+00 1.936327261399515054e+00 1.855055712194531470e+00 2.161484440272030572e+00 1.363978567340341952e+00 3.235860094233802720e+00 -3.039613430137826811e+00 1.125737557619150175e+00 1.001618056468843054e+00 2.750391040058581371e+00 4.248336948691621706e-01 -1.834146471117307886e+00 -1.326578783444135601e+00 2.172493904918712193e+00 -1.450259140138194791e+00 1.701628203686092466e-01 3.503927445753287628e+00 5.254201953713334206e+00 2.870640516410619458e+00 2.876874413650774565e-01 5.534235220334560168e+00 -3.377365396397855046e-01 -7.618133016756962750e-01 -5.534451707238635443e+00 4.370731753698772759e-01 -2.784798059627665801e+00 3.657322558359216380e+00 2.462396094729994989e+00 3.832052172540398871e+00 -5.171945157695503781e+00 6.559766080841919589e+00 -6.085457157971085884e-01 -2.479186428202364845e-01 -1.663231345901519997e+00 6.980542060366524915e+00 6.999211870405153135e-02 -5.233635183605502700e-02 1.954335269429724686e+00 3.115266090029672252e+00 4.102984247438989485e+00 -1.261294355017541724e+00 -1.932133277576146169e+00 7.479931068207588130e-01 1.750371181446901958e-01 1.292703982273430974e+00 1.477946838150147713e+00 1.042190581928339244e+00 -1.786316235054203450e+00 3.775492012081838045e+00 7.145862464640887479e-01 7.584610970969144494e-01 -4.965726212053844790e-01 3.425289220623766617e+00 -2.929669964549392880e+00 -6.924994400416573104e-01 -2.124536656348940955e+00 1.295592359803576343e+00 -2.119206244834345443e-01 2.134914658007013522e+00 3.977571481291653832e+00 -1.070142075146445881e+00 -6.224240175882941317e-01 -6.259438581070486673e-01 3.635450181958161942e+00 1.194264147400126319e+00 -8.699693361986525764e-01 1.964981180059348354e-01 -1.241800763457941104e+00 -1.463884959578071410e+00 -3.137532359467596343e+00 -3.513462639725422498e+00 -4.166961012689660571e+00 -2.065937096694269837e+00 3.228555075328115587e-01 -2.907531736059485450e+00 1.214348578515029642e+00 2.852089491347860495e+00 2.093171252071081567e-01 -1.230862775485051852e+00 5.885846976441483358e-01 -1.203091259503112492e-01 -2.107150341114520486e+00 1.673730189418161540e+00 8.788967213332175010e-01 -3.080384958998456213e+00 3.027973016723210509e-01 -9.851825352620597886e-01 1.202220169680063622e+00 3.323099688590088197e-01 -2.637581822649692209e-01 -1.571454268311123004e+00 7.474258699944273054e+00 -4.683870547361258296e+00 -4.053766129774699079e-01 5.983696485980159352e+00 4.605447780694462145e-01 1.493780721167457859e+00 -4.115150708603888319e+00 -2.870399346914155991e+00 -8.193201423964958652e-01 3.642354108737533291e+00 3.883086003407277831e-01 1.221410885262228296e+00 -8.801555335450379491e-01 -2.125385634682975589e+00 -1.581814786466253508e-01 3.500588096691374940e-01 8.233459760592173327e-01 -1.316324194748006660e+00 1.103208521416422006e+00 6.479473607801685686e-01 1.733742313266407820e+00 -1.594972150871420746e+00 2.401484598921587832e+00 -4.861217030556309382e+00 -4.021580543520592244e+00 -5.047898675881014041e-01 -7.003047956638889238e-01 3.959275509683576555e+00 -7.043800459334550901e+00 -1.021255115596702456e+00 3.181550163448005897e-01 -8.151169026009807972e-02 -1.720975242353385504e+00 -3.162494173682628862e+00 -2.077182074409992918e+00 8.007392925346001888e+00 -2.789122141281749734e+00 -9.874883007676983349e-01 -2.712632330131389824e-01 -1.276035519100979876e+01 5.858584538927559038e+00 -2.810007213987259611e+00 4.413273230121936841e-01 -2.605406520809079751e+00 -1.237436058370550596e+00 1.716895929740488436e+00 1.897279400240692526e+00 -9.551618180487060350e-01 -4.241343547514841106e+00 -1.574869207812225946e+00 -6.077070218765696641e-01 3.806076315154732770e-01 -1.396010401612695295e+00 -4.573072447011367614e-01 2.995857878701546184e+00 1.911544910199974856e+00 1.907086616949777325e+00 1.236962975349768623e+00 8.167084155893730157e-01 -5.665903480990391650e+00 -2.877514618390855095e+00 -2.967673957738446777e+00 -2.280035445735326238e+00 -4.144348158516946157e+00 8.849079610212000624e-01 -1.465095435046464223e+00 1.157169296364054301e+00 3.653258672366562543e+00 -3.015965963967488506e-01 -7.184598708070804030e-01 -7.101842603777780205e+00 -5.488874271951669215e+00 -1.125165744228813436e+00 -4.425969852802516868e+00 1.423520693491854727e+00 7.073362491706016719e-01 6.635205339153739112e-01 -2.413057649427809981e-01 -9.795379349151834836e-01 1.060786858410477818e+00 -1.334101831915921910e+00 1.541535881012046971e+00 3.557368343598734106e-01 6.795601052025894706e-01 2.180183560889122241e+00 2.410568821361955549e-01 2.578248470092133537e+00 -9.853964510627613027e-01 5.879912869854715396e-01 2.421596797952928704e+00 2.185524256817213296e+00 -3.158672485627788351e+00 2.540291270984483263e-01 -1.989377351532142013e+00 1.230444714076469381e+00 -8.097324979155348101e-01 4.790069972216739025e+00 5.599179234674461547e+00 -1.261745326549309043e+00 3.742670334853048342e+00 9.204642637983804221e-01 9.571441387499183273e-01 1.052712565375344828e-01 4.958731268215040622e+00 4.102937967578260903e+00 -4.607153964893326403e+00 -5.656694817146731502e+00 -9.512001077041274399e+00 2.246645554660924027e-01 1.180718546385512546e+00 2.815438412754108555e+00 2.085550501671090129e-01 -1.107476553016957244e+00 -7.029478385101045390e+00 -5.152012935900330826e-01 3.458980445013580596e+00 2.920125000384437897e+00 -5.514384245405999918e-01 2.619162438079671862e-01 9.130944530876732301e-01 7.249920160385981971e-01 -4.283735899942324732e-01 4.549716543963620019e-01 1.661881002409591579e+00 -3.721208306550454648e+00 6.186198130363955716e-01 -3.258708975696233523e+00 1.128666044361926746e+00 -2.174133240429857228e+00 2.236552431256670914e+00 5.458889550185548334e-01 1.341107574388896717e+00 4.882239400181981104e+00 4.036407068236041340e+00 8.070009576911923999e-01 -1.399727702870558810e+00 -3.881284174162907608e+00 3.264653366696496639e-01 -3.894752642076306781e+00 -3.987288709382654783e+00 2.444595831852390155e+00 1.571506718819948967e+00 3.108296343003931206e+00 1.553130014565934136e+00 -1.748239222529333725e+00 -3.967078294202434297e+00 1.592793397872448891e+00 -4.991365769118215390e+00 6.508335271614122952e+00 -4.946076811629790626e+00 2.074171312359253783e+00 -1.693863471497167650e+00 -3.962762440079145687e+00 8.038811808574035725e-03 -5.682719525496500168e-01 2.821616259940715188e-01 5.714421230095655391e-01 -7.346969028334051632e-01 1.990063321912275640e+00 2.319532735763892628e+00 -2.499359305273327614e+00 6.774841963385701549e-01 -2.500142977581667036e+00 -1.714929035659519263e+00 2.933445372743505253e+00 -1.594055809628992737e+00 1.693827476049934111e+00 -3.860200612276938781e+00 -3.396498005043771418e+00 2.516340414616034415e+00 1.252317090477524708e+00 1.758554489265084397e+00 -2.053049698143353030e+00 1.748566266878482933e+00 -2.336299415085223430e+00 -5.784180921054714375e+00 -8.758644134362059575e+00 -1.026705340528518251e+00 2.230934570384882409e+00 3.780807511196865311e-01 1.011837421048750763e+01 8.827286938015532769e+00 -1.234895294016545408e+00 -1.508437553060234970e+00 2.914205291976562862e+00 -2.973337070029614448e+00 2.259084552783446886e-01 3.183272288487788426e+00 4.591426011335017598e+00 -1.605499790745849031e+00 -1.301054411810911526e+00 -3.775917272579866757e-01 -6.095088511209401094e-01 -9.338663972447350803e-01 -3.126101748088284005e+00 4.003105108897022646e-01 -3.973785274463371486e+00 -3.620429796048326487e+00 3.066449064491696852e+00 -3.452169077955666299e-02 3.030530236138808675e+00 -4.085676093747133919e+00 6.645083518315939575e-01 -7.414727886647606292e-01 2.285761807169490289e+00 1.183721080905455247e+00 -4.599189715082593020e-03 7.252203300181930823e-01 1.441018080392024281e+00 -7.237805121288559684e-01 2.709658077748558824e+00 1.065419986690094634e+00 -3.355824178111347589e+00 -1.589096151220900990e-02 5.895123517414212477e-01 1.204554217322813869e+00 2.863267106155189090e+00 7.193895817870524234e-02 5.577186016414836800e-02 -3.154650251509790504e+00 6.126414834715978586e-01 4.676230256575625299e-01 4.109754476842922832e-01 -1.362827227249547191e+00 3.858466660161637307e+00 -1.266473071433082520e+00 1.336938273157916246e+00 1.507840028636160179e+00 2.688742666023238304e+00 -3.699802842522084134e+00 1.008772408716824387e+00 1.213612214508768966e-01 2.549395548031166747e+00 -2.855737372814630692e+00 2.519482302938838458e+00 1.433189584839428543e-01 -6.007840689322319072e-01 -4.932457162838010944e+00 -1.545320545178304750e-01 -1.686481319490266140e+00 -3.357728337269995311e+00 1.756193187926571531e+00 1.837138721223755322e+00 3.990556581770774880e+00 1.861759092910745483e+00 1.817354080762238810e+00 2.085451771301535029e+00 -9.750611297206946970e-01 -1.310888367995084014e+00 6.884751490409600772e-01 3.628879470176036293e+00 1.126062545085600552e+00 6.178344437998296357e+00 3.086319065585224397e+00 -9.717958284359479171e-01 1.197781416815507205e+00 -2.234902297111355463e+00 -2.063921865869872363e+00 4.845613004180617800e+00 -9.283112712952676926e-01 -4.791076302077250659e-01 -4.689234897440387462e-01 7.807952436639070681e-01 5.577826221154917441e+00 -3.794526918799549509e-01 -1.245112858824091395e+00 -1.759601442558902384e-01 -4.083373413565543508e+00 -2.342773453380492921e+00 3.740232414633995806e+00 -7.508953683091227349e-01 -1.590382731349158529e+00 4.443591681105978908e-01