-6.748318710784705843e+01 1.849375056078315760e+00 6.425899997506449246e+00 1.849375056078315760e+00 -4.610758937830375004e+01 -1.030838556256680638e+00 6.425899997506449246e+00 -1.030838556256680638e+00 1.862924973081034352e+01
-9.667336351435663744e+01 -2.787639738016055446e+01 1.709071663312852962e+01 -2.787639738016055446e+01 -2.060215090248912517e+01 3.242724125217048226e+00 1.709071663312852962e+01 3.242724125217048226e+00 -5.333197589744644063e+01
-1.392281462655643942e+01 -8.012255312851319644e+00 8.067290120935238562e+00 -8.012255312851319644e+00 -3.802201367280871835e+01 1.647362133073344559e+00 8.067290120935238562e+00 1.647362133073344559e+00 1.421568467816240222e+01
-5.672197488192097836e+01 3.304093428635711405e+01 1.498586294638770688e+01 3.304093428635711405e+01 -4.608068507956497939e+01 4.791435123943280416e+01 1.498586294638770688e+01 4.791435123943280416e+01 -7.848202197848139861e+01
-1.895207572814572217e+01 -3.813950125958960058e+01 -2.131628337548805874e+01 -3.813950125958960058e+01 -6.955218107560544816e+00 -1.520615554506757938e+01 -2.131628337548805874e+01 -1.520615554506757938e+01 -4.622115292322858693e+01
-7.852527560333876977e+01 -1.047088941258330586e+01 7.601072130143021077e+00 -1.047088941258330586e+01 -5.749213969590467599e+01 -5.271042316924877014e+01 7.601072130143021077e+00 -5.271042316924877014e+01 -6.837157510143788386e+01
-6.196500188362087869e+01 4.385302520055111586e+01 2.057514320597566027e+01 4.385302520055111586e+01 -5.211541988916905410e+01 4.161058231030484222e+01 2.057514320597566027e+01 4.161058231030484222e+01 -4.416992476332821127e+01
-4.318429607813828852e+01 -3.786844741569812811e+01 1.655607367934396024e+01 -3.786844741569812811e+01 -4.723227747164823853e+01 2.872137275077888319e+01 1.655607367934396024e+01 2.872137275077888319e+01 -5.235042319826803237e+01
-8.290318030959039675e+01 2.550176326669200133e+00 1.560988822420475097e+00 2.550176326669200133e+00 -6.589812801929370778e+01 -3.211607705021361170e+01 1.560988822420475097e+00 -3.211607705021361170e+01 -8.136825582352884112e+01
-7.207860016448977092e+01 2.913654502713854910e+01 -1.581997572314565836e+01 2.913654502713854910e+01 -9.976132964740091325e+01 1.148606452857127636e+01 -1.581997572314565836e+01 1.148606452857127636e+01 -5.009040905212793859e+01
-5.616781809365780020e+01 1.414995713073046169e+01 -9.430342290712914632e+00 1.414995713073046169e+01 -1.047765879466459751e+02 6.566094945816312922e+00 -9.430342290712914632e+00 6.566094945816312922e+00 -4.348887773729085637e+01
-4.985384853846980491e+01 -2.013829738827820037e+01 3.357017273034118787e+00 -2.013829738827820037e+01 -4.783308261224100022e+01 8.459717861983525822e+00 3.357017273034118787e+00 8.459717861983525822e+00 -1.180119968945400615e+02
-6.692467598259193551e+01 2.519075563491659508e+00 1.897350557124060444e+01 2.519075563491659508e+00 5.647787373738660222e+01 -3.791611298160038501e+00 1.897350557124060444e+01 -3.791611298160038501e+00 -7.777138991919713362e+01
1.136475009930879132e+01 -3.391577120333571571e+01 -1.966216761313227757e+00 -3.391577120333571571e+01 -3.538108226289221392e+01 1.359318439813347545e+01 -1.966216761313227757e+00 1.359318439813347545e+01 -4.192227990903101187e+01
-6.267481284304179212e+01 -2.180398132536015332e+00 4.468721531241641998e+01 -2.180398132536015332e+00 -3.853145978208414846e+01 -1.112177610462336830e+01 4.468721531241641998e+01 -1.112177610462336830e+01 -7.268831643196779169e+01
-6.059084535302260122e+01 -3.661330953938194455e+01 -3.344608334430827057e+01 -3.661330953938194455e+01 -9.597668421802730165e+01 3.073542317038988969e+01 -3.344608334430827057e+01 3.073542317038988969e+01 -6.693956552426345752e+01
-6.137676307776789031e+01 8.845633621125750778e+01 -2.913283328710036812e+01 8.845633621125750778e+01 -6.669917488026281660e+01 -2.099350796095957250e+01 -2.913283328710036812e+01 -2.099350796095957250e+01 -8.626064125530571403e+01
-5.295016071463886220e+01 9.304662369214181661e-01 1.857538986796869551e+01 9.304662369214181661e-01 -5.656930107143602982e+01 -5.403367248531682776e+01 1.857538986796869551e+01 -5.403367248531682776e+01 -2.964815533095491062e+01
-1.595992689571168910e+02 2.145623911208878809e+01 3.072121036328087840e+01 2.145623911208878809e+01 -8.155925704252956621e+01 2.541065485558248582e+01 3.072121036328087840e+01 2.541065485558248582e+01 -7.239388986651292157e+01
-5.257266166879102087e+01 -8.033629682744727774e+00 7.569749614229978718e+00 -8.033629682744727774e+00 3.514081058155485948e+01 -1.734667978095200525e+01 7.569749614229978718e+00 -1.734667978095200525e+01 -5.501787345970817000e+01
-1.195767200869018012e+02 -4.889539940407267693e+01 2.228838297560347570e+01 -4.889539940407267693e+01 -6.709053050240227378e+01 2.817249083923886488e+01 2.228838297560347570e+01 2.817249083923886488e+01 -1.205062320204666690e+02
-7.570021003462595388e+01 2.914812167343037075e+01 1.003871463379702789e+01 2.914812167343037075e+01 -4.859718179486461764e+01 -4.455691940078564173e+00 1.003871463379702789e+01 -4.455691940078564173e+00 -3.198418827022038258e+01
-4.386923875585020483e+01 7.086236627577234160e+00 1.235589777081520602e+01 7.086236627577234160e+00 2.368228136523929805e+01 5.151157484898387651e+00 1.235589777081520602e+01 5.151157484898387651e+00 -1.873945393595448650e+01
1.381320730268376629e+01 -1.981859472915820675e+01 3.912912628461805298e+01 -1.981859472915820675e+01 -6.885841418114526391e+01 1.883042825563562062e+01 3.912912628461805298e+01 1.883042825563562062e+01 -6.574003773300483999e+01
-7.053537645567136849e+01 1.909304098679780282e+01 2.628849475227828592e+01 1.909304098679780282e+01 -1.190637515970640692e+02 2.353248837614442834e+01 2.628849475227828592e+01 2.353248837614442834e+01 -8.829419335917852152e+01
-6.859720350098314157e+01 3.355391945876480264e+01 1.778842860941821158e+01 3.355391945876480264e+01 -5.085488333157032059e+01 -3.958535893398952066e+00 1.778842860941821158e+01 -3.958535893398952066e+00 -5.153279185988347422e+01
-4.138587799440042403e+01 2.948315921269285056e+01 2.948382946696834317e+00 2.948315921269285056e+01 -2.130570928917912710e+01 1.907656714050357039e+01 2.948382946696834317e+00 1.907656714050357039e+01 -1.374081103094705014e+01
-3.970061616700074580e+01 -2.883559941073112309e+00 4.106842492928420540e+01 -2.883559941073112309e+00 -6.517051302060004048e+01 -1.352775744440289785e+01 4.106842492928420540e+01 -1.352775744440289785e+01 -1.050894051240923375e+02
-4.938579596427096163e+01 1.696644242734600461e+00 -4.291275183093203438e+00 1.696644242734600461e+00 -4.710997376035883377e+01 2.101157490065056876e+01 -4.291275183093203438e+00 2.101157490065056876e+01 -1.743351597683280829e+01
-9.712749602225622780e+00 1.886204595174156395e+01 -1.303477931204566076e+01 1.886204595174156395e+01 -2.194814748932171966e+01 2.162236370448104239e+01 -1.303477931204566076e+01 2.162236370448104239e+01 -5.838619214653192557e+01
-1.042944002112965940e+01 3.351750283927609786e+01 3.540316892601095589e+01 3.351750283927609786e+01 -6.181141494657951085e+01 9.742540786991908064e+00 3.540316892601095589e+01 9.742540786991908064e+00 -2.148335204437740842e+01
-5.155845165957853027e+01 2.240669790764756186e+01 -1.647830166798051721e+01 2.240669790764756186e+01 -2.884409037919748897e+01 3.653277854250870149e+00 -1.647830166798051721e+01 3.653277854250870149e+00 -5.368260108720673429e+01
-1.636564607687919803e+01 5.942583792071563842e+00 -5.285662458439559508e-01 5.942583792071563842e+00 -3.292583476120661601e+01 -1.820400504938975317e+01 -5.285662458439559508e-01 -1.820400504938975317e+01 -2.764313696979524337e+01
-9.500460857314681107e+01 3.426720597344444030e+01 4.859542401060672923e+00 3.426720597344444030e+01 -3.056854099157737181e+01 -1.845396933825447050e+01 4.859542401060672923e+00 -1.845396933825447050e+01 -7.990074391034914925e+01
-6.220975411492507590e+01 -4.230846715418611836e+01 2.032540590972799155e+00 -4.230846715418611836e+01 -4.481345107920573412e+01 -2.605355846887810500e+01 2.032540590972799155e+00 -2.605355846887810500e+01 -6.326730755136624396e+01
-4.205706416461646313e+01 -2.784841735672349117e+01 -3.006805310102857476e+01 -2.784841735672349117e+01 -3.421051483897450396e+01 5.238280833373833545e+00 -3.006805310102857476e+01 5.238280833373833545e+00 4.335339130791993512e+00
-4.578815583521774357e+01 7.455119835205022305e+00 -7.800412071086354260e+00 7.455119835205022305e+00 1.656882711358743210e+00 2.091820795838388847e+01 -7.800412071086354260e+00 2.091820795838388847e+01 3.631416335182851451e+00
-3.889670343498969629e+01 5.841770232881827951e+00 2.534713015260015112e+01 5.841770232881827951e+00 -5.720506076093182912e+01 -3.955005983254854840e+01 2.534713015260015112e+01 -3.955005983254854840e+01 -9.416163426233566724e+01
-4.765572257997844474e+01 1.373078086466527381e+01 -2.602684524205104655e+00 1.373078086466527381e+01 1.027335938635344981e+01 1.971187221121772026e+00 -2.602684524205104655e+00 1.971187221121772026e+00 -7.525180765773619385e+01
-7.550779477217020030e+01 -3.831969501460100958e+00 -3.409085451598117800e+01 -3.831969501460100958e+00 1.033659318820499351e+01 -1.462498821712913077e+01 -3.409085451598117800e+01 -1.462498821712913077e+01 -6.663588491713133521e+01
-5.286672261370426185e+01 -6.553347799650407701e+00 3.454100761107664397e+00 -6.553347799650407701e+00 -2.455078396864243828e+01 -1.157921881208271842e+01 3.454100761107664397e+00 -1.157921881208271842e+01 -5.538654415263556530e+01
-8.624421736246794978e+01 6.151564349806891707e-01 -1.819929044670764640e+01 6.151564349806891707e-01 -4.035102763830921901e+01 -2.923666722869159784e+01 -1.819929044670764640e+01 -2.923666722869159784e+01 -2.108326969723814770e+01
-1.031507883165482253e+00 -2.992182707326464630e+00 -3.329690047604331227e+01 -2.992182707326464630e+00 -2.715520776604605757e+01 -1.707088303770699511e+01 -3.329690047604331227e+01 -1.707088303770699511e+01 -5.460217274366959117e+01
-1.423054759663809321e+01 -9.199277077001740466e+00 2.196155386077164451e+01 -9.199277077001740466e+00 -7.795935284863631409e+01 1.072547318227935698e+01 2.196155386077164451e+01 1.072547318227935698e+01 -7.727676113274290515e+01
-4.355215631763439177e+01 -4.433922688800547007e+01 -1.872507308441625273e+00 -4.433922688800547007e+01 -7.074450521684748594e+01 -9.509634087292985427e+00 -1.872507308441625273e+00 -9.509634087292985427e+00 -2.105792859958524232e+01
-7.123018475135035033e+01 2.047328038550877238e+01 -1.452889971940887648e+01 2.047328038550877238e+01 -7.820031550294169165e+01 1.167338603004578346e+01 -1.452889971940887648e+01 1.167338603004578346e+01 1.862807044627652786e+01
-8.129471770436815348e+01 -5.171233900312312670e+01 -6.255014355443309526e+00 -5.171233900312312670e+01 -4.092076411221567156e+01 -1.989014925690415225e+01 -6.255014355443309526e+00 -1.989014925690415225e+01 -1.123459563597649833e+02
-4.236353594345807494e+01 1.283980241007308365e+01 -1.687672610028018383e+01 1.283980241007308365e+01 -1.225303577160161552e+02 -9.348788326858445075e+00 -1.687672610028018383e+01 -9.348788326858445075e+00 -6.476534373843578862e+01
-5.086633399178013093e+01 7.101516075360913227e+00 6.428725915653794587e+00 7.101516075360913227e+00 -5.737043696755527833e+01 1.288629525379599450e+01 6.428725915653794587e+00 1.288629525379599450e+01 -3.704979303768602250e+01
-4.153758382470918065e+01 -1.810165899671207157e+01 3.373233507264900766e+01 -1.810165899671207157e+01 -1.093280833293152625e+02 1.059246278689766640e+01 3.373233507264900766e+01 1.059246278689766640e+01 -9.067370126566984823e+01
-8.915067891232274633e+01 1.287953106016400184e+01 -3.126925208381288712e+01 1.287953106016400184e+01 -7.149414979254930813e+01 -1.857027534590596929e+01 -3.126925208381288712e+01 -1.857027534590596929e+01 -9.580839725968147036e+01
-5.325897228624051394e+01 2.882816432338207946e+01 -1.090103461645064442e+00 2.882816432338207946e+01 -7.176691863582956898e+01 2.936896445485434715e+00 -1.090103461645064442e+00 2.936896445485434715e+00 1.175977881632386435e+01
2.866936935548694620e+01 1.092850607763389048e+00 9.519491696921605239e+00 1.092850607763389048e+00 -6.137313680146857564e+01 1.275336299156339592e+01 9.519491696921605239e+00 1.275336299156339592e+01 4.797043976464135540e+01
-1.019204333566313068e+02 -1.252031731160049288e+00 7.680296481244030637e+00 -1.252031731160049288e+00 -9.936971446542970909e+01 8.158496105740114857e+00 7.680296481244030637e+00 8.158496105740114857e+00 -7.651618387257148868e+01
-3.287931678800305235e+01 2.063567554661018377e+00 2.689978509882576252e-01 2.063567554661018377e+00 -2.980325339256696182e+01 2.414980798007369955e+01 2.689978509882576252e-01 2.414980798007369955e+01 -5.370408760720151520e+01
-9.447310057131149463e+00 2.054852574670315946e+01 6.050055202326289105e+01 2.054852574670315946e+01 -8.280026695033075157e+01 4.319374574030780423e+01 6.050055202326289105e+01 4.319374574030780423e+01 -1.074520091543784446e+02
-7.672220549577131976e+01 -1.077151373327285810e+01 1.522502119428509282e+01 -1.077151373327285810e+01 -3.085049275074393904e+01 4.181206206614683651e+01 1.522502119428509282e+01 4.181206206614683651e+01 -2.305009062491458494e+01
-1.772311739214944453e+02 2.295783199519770434e+01 -2.792310331191091421e+01 2.295783199519770434e+01 -5.935886405499651630e+01 4.041033367742324600e+01 -2.792310331191091421e+01 4.041033367742324600e+01 -2.992185357166146176e+01
-2.952155590221541814e+01 3.657560363500038214e+00 -2.128873341785392626e+01 3.657560363500038214e+00 -1.099504261400753222e+02 -2.482366589660069778e+01 -2.128873341785392626e+01 -2.482366589660069778e+01 -6.651782252928036598e+01
-8.680221251277419015e+01 -1.312143827920224837e+01 9.062011732918257678e+00 -1.312143827920224837e+01 -5.684073851787739784e+01 -5.876789252092783578e+00 9.062011732918257678e+00 -5.876789252092783578e+00 -5.020665540455384246e+01
-4.319324399581877572e+01 -9.188959593219985678e+00 2.882040078237217529e+01 -9.188959593219985678e+00 -2.661836510345214180e+01 5.612560002058701514e+01 2.882040078237217529e+01 5.612560002058701514e+01 -7.818562359060746303e+01
-7.746424816415917292e+01 6.751971863204061286e+00 1.620371589232372456e+00 6.751971863204061286e+00 1.534782738062918916e+01 -3.317370328884773567e+00 1.620371589232372456e+00 -3.317370328884773567e+00 -6.343219391462281465e+01
-1.557197304437733365e+01 4.659739837798685613e+00 7.673927482789644205e-01 4.659739837798685613e+00 -1.014509048812165304e+02 3.203759808859727798e+01 7.673927482789644205e-01 3.203759808859727798e+01 -5.772580403256988291e+01
-9.519846302204310007e+01 1.008964473665642458e+00 3.918427301981288480e+01 1.008964473665642458e+00 -1.790832473489087917e+01 -3.007565504219232011e+01 3.918427301981288480e+01 -3.007565504219232011e+01 -7.548669424543963657e+01
-7.514729273620223182e+01 2.901983081708973122e-01 1.606601329904012943e+01 2.901983081708973122e-01 -6.767283058209369528e+01 -1.117562249229353100e+01 1.606601329904012943e+01 -1.117562249229353100e+01 -6.812990643962839954e+01
-8.343797102437373781e+01 7.468409633070744569e+00 -1.712281713896819468e+01 7.468409633070744569e+00 -9.765798612779447296e+01 -1.880249327521511304e+01 -1.712281713896819468e+01 -1.880249327521511304e+01 -6.045020484882346068e+01
-9.108635208558392549e+01 4.479634736086025981e+01 -8.692843930899750049e+00 4.479634736086025981e+01 -4.028899284613625298e+01 1.354544477685390547e+01 -8.692843930899750049e+00 1.354544477685390547e+01 -3.692607119278534356e+01
-1.138321519317339892e+02 4.244562546006602766e+00 2.322892155971806716e+01 4.244562546006602766e+00 -4.685353230428695781e+01 1.839016984548845457e+01 2.322892155971806716e+01 1.839016984548845457e+01 -1.172630776099575911e+02
-9.931700874579830440e+01 2.831326647947039632e+01 2.591180283120388594e+01 2.831326647947039632e+01 -5.387398165809096184e+01 -1.295524779566295237e+01 2.591180283120388594e+01 -1.295524779566295237e+01 -8.586528772665707265e+01
-2.170622337649660238e+01 -1.417837819030483537e+01 3.087233699998392922e+01 -1.417837819030483537e+01 -6.704331329953642182e+01 -1.002586598750476909e+01 3.087233699998392922e+01 -1.002586598750476909e+01 -3.608654313461231311e+01
-8.569304081712063237e+01 -1.879109167904524824e+01 6.588084839575133245e+00 -1.879109167904524824e+01 -2.957584047157387097e+00 7.893991020923690094e+00 6.588084839575133245e+00 7.893991020923690094e+00 2.530338701216346564e+01
-5.313843497274823591e+01 -1.070691942200925162e+01 -2.275360151782117057e+01 -1.070691942200925162e+01 -5.535099242035759204e+01 1.033223328359487603e+01 -2.275360151782117057e+01 1.033223328359487603e+01 -4.607955586436047923e+01
-6.199931355125126942e+01 2.343403197097091706e+01 -2.605917352963905387e+01 2.343403197097091706e+01 -5.322866024348763148e+01 -2.281820511172015031e+01 -2.605917352963905387e+01 -2.281820511172015031e+01 -4.328437413921232491e+01
-3.924299484801001370e+01 1.639330928288647904e+00 4.786624635175351727e+01 1.639330928288647904e+00 -3.439880590413155659e+01 1.768802779213768872e+01 4.786624635175351727e+01 1.768802779213768872e+01 -3.383799100808507987e+00
-2.765357010501004797e+00 4.330624138681580249e+00 -3.849492631220087002e+00 4.330624138681580249e+00 1.612691913312724878e+00 -2.041458491753688520e+01 -3.849492631220087002e+00 -2.041458491753688520e+01 5.948184696165031760e+00
-1.038328131937584118e+02 2.999655822248613646e+01 4.027375713877954233e+00 2.999655822248613646e+01 -5.446326132790505170e+01 1.604625876564273668e+01 4.027375713877954233e+00 1.604625876564273668e+01 -1.003672385393462037e+02
-7.432253658787141148e+01 -1.000600409515147504e+01 -2.577622073742564623e+01 -1.000600409515147504e+01 -1.927106485780993594e+01 -3.299185015416172462e+01 -2.577622073742564623e+01 -3.299185015416172462e+01 -6.378188381921842875e+01
-2.467725823485090331e+01 9.348066056023784043e+00 -1.205008824537198464e+01 9.348066056023784043e+00 -2.769425008772082109e+01 6.414448873613293856e+00 -1.205008824537198464e+01 6.414448873613293856e+00 -6.692364557732250319e+01
-8.557067090050071556e+01 8.358076891723642987e+00 -3.820328493849074913e+00 8.358076891723642987e+00 -1.272652844531883147e+02 2.763002395590360649e+01 -3.820328493849074913e+00 2.763002395590360649e+01 -7.067427743809913920e+01
-9.903644900235202897e+01 2.609348222343298218e+01 -1.052411718942936858e+01 2.609348222343298218e+01 -1.114462486727748036e+01 3.790887397737239439e+01 -1.052411718942936858e+01 3.790887397737239439e+01 -9.209077096423662567e+01
3.666647286365732894e-01 -4.241386397035724798e+01 3.156791596065062677e+01 -4.241386397035724798e+01 -3.115620978141333453e+01 -7.062347147523301061e+00 3.156791596065062677e+01 -7.062347147523301061e+00 -6.089363547519899811e+01
-8.138930125943643645e+01 1.612463955016207962e+01 1.097156359792697877e+01 1.612463955016207962e+01 -6.222762549954529732e+01 3.067935285636502130e+01 1.097156359792697877e+01 3.067935285636502130e+01 -7.696284770539263320e+01
-4.218311393526263942e+01 3.105552468308734859e+01 -9.593433452881506840e-01 3.105552468308734859e+01 -8.130419319578822979e+01 -1.941187061093878441e+01 -9.593433452881506840e-01 -1.941187061093878441e+01 -1.421402232189075221e+02
-1.212157747608076193e+02 -1.946987181835911684e+01 9.092005161243493561e+00 -1.946987181835911684e+01 -7.606486301349949031e+01 2.245592343193333562e+01 9.092005161243493561e+00 2.245592343193333562e+01 -6.153457313992112176e+01
-4.324622085896480428e+01 -2.927160345492444904e+01 -1.320918399351766226e+01 -2.927160345492444904e+01 -3.101470848598483698e+01 7.357377497386722531e+00 -1.320918399351766226e+01 7.357377497386722531e+00 -4.524109432560556598e+01
-4.138393651955485808e+01 -4.150337847937428659e-01 -2.422665350583774213e+01 -4.150337847937428659e-01 -1.798416040795208559e+01 2.062534578060583712e+01 -2.422665350583774213e+01 2.062534578060583712e+01 -6.583506384503979803e+01
-1.127312889322690239e+02 -1.197936680910329876e+01 1.201716266928848320e+01 -1.197936680910329876e+01 -5.046818945254848643e+01 -4.927598527606383172e+00 1.201716266928848320e+01 -4.927598527606383172e+00 -2.997391103651056099e+01
-3.606092634059124435e+01 -2.463890515547209503e+01 2.818746612944244490e+01 -2.463890515547209503e+01 -7.479901902862081897e+01 -1.087043844986286700e+01 2.818746612944244490e+01 -1.087043844986286700e+01 -6.078334206931609884e+01
-4.364350656325451183e+01 2.705262615682361288e-02 -1.749450159743923194e+01 2.705262615682361288e-02 -2.633956376879830330e+01 9.202238112212542731e+00 -1.749450159743923194e+01 9.202238112212542731e+00 -4.101454523731172230e+01
-4.785960358522020641e+01 1.304839335930947719e+01 -1.775284967288619953e+01 1.304839335930947719e+01 -2.949987649585558813e+01 -3.265849400888368592e+01 -1.775284967288619953e+01 -3.265849400888368592e+01 -3.864620805385482782e+01
-8.660530869098673534e+00 -6.912811015673321791e+00 4.240949924896135315e+01 -6.912811015673321791e+00 3.463671211824202789e+00 -3.068572145128913409e+00 4.240949924896135315e+01 -3.068572145128913409e+00 7.514459001545522376e+00
-3.173971037942841988e+01 -8.620187300964701649e+00 2.503204508275029827e+00 -8.620187300964701649e+00 -7.534831175395675373e-01 2.030667175962823379e+01 2.503204508275029827e+00 2.030667175962823379e+01 -7.495888335517884116e+01
-2.846533520105750270e+01 1.090380623495125079e+01 3.147821559799181657e+01 1.090380623495125079e+01 -7.550784430906838907e+01 -1.257745045201852108e+01 3.147821559799181657e+01 -1.257745045201852108e+01 -5.219309406911249738e+01
-4.863490601716316775e+01 2.294176238422811664e+01 -3.338577545939771340e+01 2.294176238422811664e+01 -4.729068852956049085e+01 -5.159420634058056976e+01 -3.338577545939771340e+01 -5.159420634058056976e+01 -6.513644706608900492e+01
-4.784769096763024265e+01 -9.824391312019034039e-01 -8.163039956075063941e+00 -9.824391312019034039e-01 5.458905065632854381e+00 3.793763211978102845e+00 -8.163039956075063941e+00 3.793763211978102845e+00 3.203353504244836891e+00
-1.493118016863452091e+01 2.326809283836604791e+01 -8.758617215361041985e+00 2.326809283836604791e+01 -8.052664796959712135e+01 -8.960405112566386387e-01 -8.758617215361041985e+00 -8.960405112566386387e-01 1.938591001894739874e+00
-3.809530044840989405e+01 -2.764444075909568355e+01 2.461996111572572943e+01 -2.764444075909568355e+01 -5.998585678667807741e+01 1.185946732663365566e+01 2.461996111572572943e+01 1.185946732663365566e+01 -6.942376520030187237e+01
-1.371391548954927408e+01 7.526301078796005406e+00 -5.953503481350710835e+00 7.526301078796005406e+00 8.690981483762030280e+00 7.234068345720400472e+00 -5.953503481350710835e+00 7.234068345720400472e+00 -1.010229644413685151e+02
-5.886600158078900336e+01 7.767057119028501155e+00 1.465294766284895189e+00 7.767057119028501155e+00 -1.062112917412992630e+02 1.384540022822589833e+01 1.465294766284895189e+00 1.384540022822589833e+01 -9.289473285545956571e+01
-3.545799145788056705e+01 7.388521405277084675e+00 -1.093974560655157902e+01 7.388521405277084675e+00 -4.333544795046115894e+01 7.918117987335655528e+00 -1.093974560655157902e+01 7.918117987335655528e+00 -5.822866619887935258e+01
-7.779843764812454765e+01 1.162256911251627578e+01 -4.576946378454493924e+00 1.162256911251627578e+01 -8.724173181703694979e+01 1.397086456798343690e+01 -4.576946378454493924e+00 1.397086456798343690e+01 -6.642734964380822760e+01
-3.802170979688519736e+01 4.497926076271243545e+01 2.692988265098017209e+01 4.497926076271243545e+01 -4.985792275246237182e+01 2.364886283229501629e+01 2.692988265098017209e+01 2.364886283229501629e+01 -8.735920178879023013e+01
-5.238624281894954038e+01 -2.321077053713768024e+01 2.646307898306799089e+01 -2.321077053713768024e+01 -5.169731892849065247e+01 -1.094101217171839480e+01 2.646307898306799089e+01 -1.094101217171839480e+01 -1.230827176943288848e+01
-3.926227193466960586e+01 -4.770229916501954825e+00 1.907448184195152407e+01 -4.770229916501954825e+00 -1.000878432068388832e+02 -1.024869478454371574e+01 1.907448184195152407e+01 -1.024869478454371574e+01 -8.751594855906108705e+01
-7.179354810269607867e+01 3.270830814434318512e+01 9.176572377581290851e+00 3.270830814434318512e+01 -6.823524251052630518e+01 -1.191814146394309759e+01 9.176572377581290851e+00 -1.191814146394309759e+01 -9.551634462715339779e+00
-2.091761821987289949e+01 -6.262020256643696214e+00 -1.412923531394898724e+01 -6.262020256643696214e+00 -5.793404318755510474e+01 -4.249321102571463449e+00 -1.412923531394898724e+01 -4.249321102571463449e+00 -7.659946593487009636e+01
1.109424864814250400e+00 3.899693323845292525e+01 9.226649281908830602e+00 3.899693323845292525e+01 1.441499626433823678e-01 2.342767749021211543e+01 9.226649281908830602e+00 2.342767749021211543e+01 2.521563489473584241e+01
-5.599589357080290597e+01 3.655032622152796762e+01 4.849541778350516252e-01 3.655032622152796762e+01 -1.420927178381247700e+02 1.257724748224983147e+00 4.849541778350516252e-01 1.257724748224983147e+00 -7.853126072203001229e+01
-7.247511654812915083e+01 -5.280607529959077340e+00 9.563548050750508622e+00 -5.280607529959077340e+00 -7.293033284657107629e+01 1.465914619008829867e+01 9.563548050750508622e+00 1.465914619008829867e+01 -7.153221216934848314e+01
-9.582389170300184844e+01 2.780965671213934343e+01 -9.451948033028195084e+00 2.780965671213934343e+01 -1.552080342829852277e+01 4.860690867229780388e+00 -9.451948033028195084e+00 4.860690867229780388e+00 -5.428009970091153491e+01
-9.093651065941168099e+01 -4.570454897336176714e+00 1.985135044262702309e+01 -4.570454897336176714e+00 -1.408658881932593090e+02 -2.634940374170189870e+01 1.985135044262702309e+01 -2.634940374170189870e+01 -6.442519713579942220e+01
-9.017355578395003590e+01 -4.322066285902415927e+01 -1.810915553977485004e+01 -4.322066285902415927e+01 -8.931317493675125263e+01 -1.673997383812419670e+01 -1.810915553977485004e+01 -1.673997383812419670e+01 -5.542263634389991722e+01
-3.585054515413464316e+01 -1.998936003152988761e+01 -4.814511809404056208e+00 -1.998936003152988761e+01 -2.026615534076599445e+01 -2.190153751909097934e+01 -4.814511809404056208e+00 -2.190153751909097934e+01 -3.037189157493653369e+01
-7.572696136969204872e+01 -3.413169162737274220e+00 7.943917893276846165e+00 -3.413169162737274220e+00 -1.047333592802712019e+02 1.403574586448920636e+00 7.943917893276846165e+00 1.403574586448920636e+00 -9.560291372865195569e+01
-5.956286717774822392e+01 8.484377855399200641e+00 -1.655034904414707952e+01 8.484377855399200641e+00 -6.560438363687411822e+01 1.619955071949505765e+01 -1.655034904414707952e+01 1.619955071949505765e+01 -1.099239312630684253e+02
-2.895841123829747588e+01 -1.410094000146054327e+01 -9.504158054223631469e-01 -1.410094000146054327e+01 3.174841504754588595e+00 -1.506142735969223345e+01 -9.504158054223631469e-01 -1.506142735969223345e+01 1.999710043341551469e+01
-7.272524231884645474e+01 4.630759084295721806e+01 1.723519943211358196e+01 4.630759084295721806e+01 -1.153759109968511787e+01 -2.623122526853328029e+00 1.723519943211358196e+01 -2.623122526853328029e+00 -4.182514516569590057e+01
-5.858290502356577889e+01 -7.475159555578409609e+00 6.368177296967362011e+00 -7.475159555578409609e+00 -2.962641229779578822e+01 2.023283472692051888e+01 6.368177296967362011e+00 2.023283472692051888e+01 3.802645146475177373e+00
-5.896444915716892154e+01 2.604710844634019917e+00 8.031481548442831908e+00 2.604710844634019917e+00 -6.819343883381166904e+01 5.045756439236907909e+01 8.031481548442831908e+00 5.045756439236907909e+01 -8.033541570714100999e+01
-6.592449076495852012e+01 -7.561580073395707480e+00 -3.973869461129465464e+01 -7.561580073395707480e+00 -8.292520441170032086e+01 9.793499243267945076e+00 -3.973869461129465464e+01 9.793499243267945076e+00 -5.499290059703191957e+01
-1.878775495320422095e+00 -1.309380672189163208e+00 5.628421651756911004e+00 -1.309380672189163208e+00 -5.369733402168196079e+01 7.535559718649608385e+00 5.628421651756911004e+00 7.535559718649608385e+00 -5.267608545355214034e+01
-9.233003506969686214e+01 1.084016841758335481e+01 -1.556344568381466686e+01 1.084016841758335481e+01 -3.438131017309844140e+01 3.975548956853007354e+01 -1.556344568381466686e+01 3.975548956853007354e+01 -6.577329825138870945e+01
-9.284478689397271012e+01 -1.825880687808232095e+00 1.257711874331322832e+01 -1.825880687808232095e+00 -8.230393393700221338e+01 -3.453965426871482691e+01 1.257711874331322832e+01 -3.453965426871482691e+01 -9.409833288573045706e+01
-5.987643169036007862e+01 3.888971567693068732e+00 -8.733811513656874581e+00 3.888971567693068732e+00 -4.146693308892548657e+01 1.223026840622635980e+01 -8.733811513656874581e+00 1.223026840622635980e+01 -4.984843080980460428e+01
-7.684358153641393585e+01 1.795439285998442003e+01 1.170557163335969708e+00 1.795439285998442003e+01 8.742406665227140383e-01 -1.944548864690515089e+01 1.170557163335969708e+00 -1.944548864690515089e+01 -5.174432924825690350e+01
-6.282317342985656694e+01 -2.931288355993369876e+01 -9.717130873330372509e+00 -2.931288355993369876e+01 -1.479571220256141544e+02 1.997404897562958226e+01 -9.717130873330372509e+00 1.997404897562958226e+01 -2.928177156667888426e+01
9.002829301259179573e+00 1.072163933322523199e+01 3.779878406275448555e+01 1.072163933322523199e+01 -4.120761376367646278e+01 -1.703300094899874395e+01 3.779878406275448555e+01 -1.703300094899874395e+01 -1.817340741740364862e+01
-8.601867913889049078e+01 -9.638454010682867334e+00 4.566995321317502743e+00 -9.638454010682867334e+00 -7.763569461736496180e+01 6.637361627878311410e+00 4.566995321317502743e+00 6.637361627878311410e+00 -8.934919465877010225e+01
-5.568979488974662218e+01 -7.540931625326849463e+00 -3.464189284497583543e+01 -7.540931625326849463e+00 -1.650157540856575267e+01 -3.690526780766109738e+01 -3.464189284497583543e+01 -3.690526780766109738e+01 -5.705823247966268497e+01
-9.271064226367592198e+01 3.133516279768663182e+01 3.254775364413420391e+01 3.133516279768663182e+01 -1.127577776166771173e+02 1.780946229691024030e+01 3.254775364413420391e+01 1.780946229691024030e+01 -9.064774760431296841e+01