3.767698999999999909e+00 1.114425899999999992e+01 6.314599000000000295e+00 6.884559000000000317e+00 1.175495899999999949e+01 1.109065900000000049e+01 8.125659000000000631e+00 8.523358999999999241e+00 1.148375899999999916e+01 7.637259000000000242e+00 2.241198999999999941e+00 9.583558999999999273e+00 8.918758999999999659e+00 9.023058999999999941e+00 6.982518999999999920e+00 2.587609000000000048e+00 3.012328999999999812e+00 1.133429000000000020e+00 5.746828999999999965e+00 9.585959000000000785e+00 9.517459000000000557e+00 7.090048999999999602e+00 6.780209000000000152e+00 9.900959000000000287e+00 3.940849000000000046e+00 3.736638999999999822e+00 3.067588999999999899e+00 9.860258999999999219e+00 3.926359000000000155e+00 4.817509000000000263e+00 4.518449000000000382e+00 8.112358999999999654e+00 2.018949000000000105e+00 8.367058999999999358e+00 8.805490000000000261e-01 1.134079000000000059e+00 1.161005899999999968e+01 4.812749000000000166e+00 3.282668999999999837e+00 7.390569000000000166e+00 2.564989999999999770e-01 4.633428999999999576e+00 3.508418999999999954e+00 1.749028999999999945e+00 4.637058999999999820e+00 8.973058999999999230e+00 1.086505900000000047e+01 1.149375900000000073e+01 4.417488999999999777e+00 1.192900000000000037e-02 4.208900000000000141e-02 2.006269000000000080e+00 5.232478999999999658e+00 1.894349000000000061e+00 3.093519000000000130e+00 1.015295899999999918e+01 4.444790000000000130e-01 1.111785899999999927e+01 3.713518999999999792e+00 6.690618999999999872e+00 1.030745899999999970e+01 1.093785899999999955e+01 3.840708999999999929e+00 8.344459000000000515e+00 9.496859000000000606e+00 3.272908999999999846e+00 1.035708999999999991e+00 9.996259000000000228e+00 1.071015900000000087e+01 6.329698999999999742e+00 2.294789000000000190e+00 1.270029000000000075e+00 4.554268999999999679e+00 3.847548999999999886e+00 1.002835900000000002e+01 6.167838999999999849e+00 4.413469000000000086e+00 6.478368999999999822e+00 1.173445899999999931e+01 8.923558999999999131e+00 2.960439000000000043e+00 9.612258999999999887e+00 1.272359000000000018e+00 7.339038999999999646e+00 1.173645899999999997e+01 2.464239000000000068e+00 9.921559000000000239e+00 5.853619000000000128e+00 8.168359000000000592e+00 1.156975899999999946e+01 1.086575900000000061e+01 1.506879000000000079e+00 4.289718999999999838e+00 9.316090000000000204e-01 2.759708999999999968e+00 5.347989000000000104e+00 4.342239000000000182e+00 1.119365900000000025e+01 8.747759000000000285e+00 6.530828999999999773e+00 5.992448999999999693e+00 5.143389999999999906e-01 9.194658999999999693e+00 9.461259000000000086e+00 9.472659000000000162e+00 9.144689999999999763e-01 9.247158999999999907e+00 8.270358999999999128e+00 9.368059000000000580e+00 9.222359000000000862e+00 1.324159000000000086e+00 7.231888999999999790e+00 9.989259000000000555e+00 5.375289000000000428e+00 3.581688999999999901e+00 1.185275900000000071e+01 2.118968999999999880e+00 4.390088999999999686e+00 7.736029000000000266e+00 9.562659000000000020e+00 4.866278999999999577e+00 1.159215900000000055e+01 4.208798999999999957e+00 6.803389000000000131e+00 7.118358999999999881e+00 7.475259000000000320e+00 7.644929000000000308e+00 2.196899999999999895e-02 8.722258999999999318e+00 9.945589999999999709e-01 8.618859000000000492e+00 9.960090000000000332e-01 5.085789000000000115e+00 2.439769000000000077e+00 6.503129000000000381e+00 2.296698999999999824e+00 9.265458999999999889e+00 6.365848999999999869e+00 2.688159000000000187e+00 2.470908999999999800e+00 7.018339000000000105e+00 1.082485900000000001e+01 1.066745899999999914e+01 1.507468999999999948e+00 1.170495900000000056e+01 7.795798999999999701e+00 1.136455899999999986e+01 8.443058999999999870e+00 3.416768999999999945e+00 7.583658999999999928e+00 1.096355900000000005e+01 9.772959000000000174e+00 6.978899000000000186e+00 3.789029000000000202e+00 5.487389000000000294e+00 6.046668999999999627e+00 4.361138999999999655e+00 1.908088999999999924e+00 8.733159000000000560e+00 1.782658999999999994e+00 6.452590000000000270e-01 5.780198999999999643e+00 8.291589999999999794e-01 6.470018999999999743e+00 8.377658999999999523e+00 1.029225899999999960e+01 4.653429000000000038e+00 1.313838999999999979e+00 1.972898999999999958e+00 4.880138999999999783e+00 4.283919000000000032e+00 6.562308999999999948e+00 2.489889999999999881e-01 2.482679000000000080e+00 3.301188999999999929e+00 7.597159000000000439e+00 4.697899999999999993e-02 3.192279000000000089e+00 7.892729000000000106e+00 3.887309000000000125e+00 9.571759000000000128e+00 3.108198999999999934e+00 1.032325900000000019e+01 1.146035900000000041e+01 2.435798999999999825e+00 6.909990000000000299e-01 1.094565899999999914e+01 1.081175900000000034e+01 1.018945899999999938e+01 4.879729000000000205e+00 5.789388999999999896e+00 2.233878999999999948e+00 8.944858999999999227e+00 6.129569000000000045e+00 6.422888999999999626e+00 1.748089999999999922e-01 6.120109000000000243e+00 1.108228999999999909e+00 7.699398999999999660e+00 2.602399000000000129e+00 3.889349000000000167e+00 8.445558999999999372e+00 4.884749000000000230e+00 1.164985899999999930e+01 1.602268999999999943e+00 4.689839000000000091e+00 6.703229000000000326e+00 7.590289999999999537e-01 2.441089999999999927e-01 1.545209000000000055e+00 2.020289000000000001e+00 7.772598999999999592e+00 9.963359000000000520e+00 8.673958999999999975e+00 5.721868999999999872e+00 8.446759000000000128e+00 9.248290000000000122e-01 7.902918999999999805e+00 6.434679000000000038e+00 2.806639000000000106e+00 5.093588999999999700e+00 1.136475899999999939e+01 1.041655899999999946e+01 1.081339000000000050e+00 2.103998999999999953e+00 5.535148999999999653e+00 1.950688999999999895e+00 1.093035899999999927e+01 6.682198999999999778e+00 4.450518999999999892e+00 9.034558999999999784e+00 3.209538999999999920e+00 7.367428999999999562e+00 7.751028999999999947e+00 9.862159000000000120e+00 8.031989999999999963e-01 9.747258999999999673e+00 8.801790000000000447e-01 1.103245899999999935e+01 4.029789000000000065e+00 1.465959000000000012e+00 1.421878999999999893e+00 8.884959000000000273e+00 1.068055900000000058e+01 7.372118999999999645e+00 5.679168999999999912e+00 7.559828999999999688e+00 1.762299000000000060e+00 6.159798999999999580e+00 5.978429000000000215e+00 9.986159000000000674e+00 3.007759000000000071e+00 9.661058999999999841e+00 6.666749000000000258e+00 1.049055899999999930e+01 6.361669000000000018e+00 4.091599000000000430e+00 3.080178999999999778e+00 4.673009000000000412e+00 9.296659000000000006e+00 5.157658999999999772e+00 1.096505900000000011e+01 4.837928999999999924e+00 9.014258999999999133e+00 7.325589999999999602e-01 5.656729000000000340e+00 1.065395900000000040e+01 4.712099000000000260e+00 3.853258999999999990e+00 5.279289999999999816e-01 1.112345900000000043e+01 1.185965900000000062e+01 6.010049000000000419e+00 6.124619000000000035e+00 7.647990000000000066e-01 7.705319000000000251e+00 6.939089999999999980e-01 6.940478999999999843e+00 4.198318999999999690e+00 2.735368999999999939e+00 1.177285900000000041e+01 1.033785899999999991e+01 2.000919000000000114e+00 1.133145900000000061e+01 7.899428999999999590e+00 2.359878999999999838e+00 9.792258999999999602e+00 2.802919000000000160e+00 1.205249000000000015e+00 2.797769000000000172e+00 3.151998999999999995e+00 8.058559000000000694e+00 3.328708999999999918e+00 1.646789000000000058e+00 7.738878999999999841e+00 5.083579000000000292e+00 4.658939000000000163e+00 1.647048999999999985e+00 1.576969000000000065e+00 1.156955899999999993e+01 5.733759000000000050e+00 6.524498999999999604e+00 5.202439000000000036e+00 8.277158999999999267e+00 5.718608999999999831e+00 2.334699000000000080e+00 6.750149000000000399e+00 7.665599000000000274e+00 3.028109000000000162e+00 4.045619000000000298e+00 5.489929000000000059e+00 8.660859000000000307e+00 9.078058999999999656e+00 7.134148999999999852e+00 3.961498999999999882e+00 5.937738999999999656e+00 1.019825900000000019e+01 7.343219000000000385e+00 1.046185900000000046e+01 2.243890000000000051e-01 4.731149000000000271e+00 1.352459000000000078e+00 6.349238999999999855e+00 1.829288999999999943e+00 7.164178999999999853e+00 4.915118999999999794e+00 1.182765900000000059e+01 7.684769000000000183e+00 2.170908999999999978e+00 7.755090000000000039e-01 1.062445899999999988e+01 7.608198999999999934e+00 1.054875900000000044e+01 1.274388999999999994e+00 9.063859000000000776e+00 9.638358999999999455e+00 4.133089000000000013e+00 8.268758999999999304e+00 8.283258999999999261e+00 2.941879000000000133e+00 1.136005899999999968e+01 8.962459000000000842e+00 2.607809000000000044e+00 2.501578999999999997e+00 1.179505900000000018e+01 7.957709000000000366e+00 1.177035899999999913e+01 5.439900000000000291e-02 2.637229000000000045e+00 1.187825899999999990e+01 6.729319000000000273e+00 8.481759000000000270e+00 9.750958999999999932e+00 1.068485899999999944e+01 1.049535900000000055e+01 4.729398999999999909e+00 4.037978999999999985e+00 2.217290000000000094e-01 2.269798999999999900e+00 1.138865900000000053e+01 2.798318999999999779e+00 1.077645899999999912e+01 1.792748999999999926e+00 1.180175900000000055e+01 5.470009000000000121e+00 1.177515900000000038e+01 4.735889999999999822e-01 3.878198999999999952e+00 6.049028999999999989e+00 7.236449000000000353e+00 6.640469000000000399e+00 1.629469000000000056e+00 2.182509000000000032e+00 1.035815900000000056e+01 3.972989000000000104e+00 5.005599000000000132e+00 5.620789999999999953e-01 8.629158999999999580e+00 2.990219000000000182e+00 1.847069000000000072e+00 8.369258999999999560e+00 3.212389999999999968e-01 9.211759000000000697e+00 1.169265900000000080e+01 4.658679000000000237e+00 1.181055899999999959e+01 5.517239000000000004e+00 6.828179000000000443e+00 1.141275899999999943e+01 7.570259000000000071e+00 1.181865900000000025e+01 1.010805900000000079e+01 7.950328999999999979e+00 7.713588999999999807e+00 3.487268999999999952e+00 8.951658999999999367e+00 9.771259000000000583e+00 5.788198999999999650e+00 9.290058999999999401e+00 2.049088999999999938e+00 9.824759000000000242e+00 7.718698999999999977e+00 4.127199000000000062e+00 6.866119000000000305e+00 2.554119000000000028e+00 1.058575899999999947e+01 3.501739000000000157e+00 7.452090000000000103e-01 1.094189000000000078e+00 9.176159000000000177e+00 2.281709000000000209e+00 3.342979000000000145e+00 8.739259000000000555e+00 2.728539000000000048e+00 6.123469000000000051e+00 4.924408999999999814e+00 7.768718999999999930e+00 7.157888999999999946e+00 1.331339000000000050e+00 8.560458999999999818e+00 9.829790000000000472e-01 1.146989999999999954e-01 2.973589000000000038e+00 1.948488999999999916e+00 4.302309000000000161e+00 9.351990000000000025e-01 1.068195900000000087e+01 9.251758999999999844e+00 2.070768999999999860e+00 7.048048999999999786e+00 9.859559000000000850e+00 3.916799000000000142e+00 5.033349000000000295e+00 4.691438999999999915e+00 3.078389000000000042e+00 2.390419000000000072e+00 9.857289999999999663e-01 4.615638999999999825e+00 9.651690000000000547e-01 5.761098999999999748e+00 7.291229000000000404e+00 4.038168999999999897e+00 3.268989999999999951e-01 3.309149000000000118e+00 1.460758999999999919e+00 1.921238999999999919e+00 6.383009000000000377e+00 9.829859000000000790e+00 1.037115900000000046e+01 5.401489999999999903e-01 8.260659000000000418e+00 7.508258999999999794e+00 1.038455899999999943e+01 1.512689999999999868e-01 5.752768999999999799e+00 9.304959000000000202e+00 6.194748999999999839e+00 6.810589000000000226e+00 1.126475899999999974e+01 6.800328999999999624e+00 2.147848999999999897e+00 1.061325899999999933e+01 8.503659000000000745e+00 3.956729000000000163e+00 4.877018999999999771e+00 5.831928999999999697e+00 9.627058999999999145e+00 6.007408999999999999e+00 3.403058999999999834e+00 9.832858999999999128e+00 5.783979000000000426e+00 8.254958999999999492e+00 6.962228999999999779e+00 7.528628999999999571e+00 3.066009000000000206e+00 6.253339000000000425e+00 1.220890000000000031e-01 6.405109000000000385e+00 3.040379000000000165e+00 3.925558999999999799e+00 5.772159000000000262e+00 4.035389999999999810e-01 1.149815899999999935e+01 4.233390000000000208e-01 7.822758999999999574e+00 7.849198999999999593e+00 4.486119000000000412e+00 1.062745899999999999e+01 7.468308999999999642e+00 8.443659000000000248e+00 6.272358999999999796e+00 5.054719000000000406e+00 6.066429000000000293e+00 1.308958999999999984e+00 6.416329000000000171e+00 5.334499000000000102e+00 8.488359000000000876e+00 1.031605899999999920e+01 1.027445900000000023e+01 8.551558999999999244e+00 6.844738999999999685e+00 9.376459000000000543e+00 5.872809000000000168e+00 1.160445900000000030e+01 2.032198999999999867e+00 7.280229000000000283e+00 4.191319000000000017e+00 9.225590000000000179e-01 2.706649000000000083e+00 9.008959000000000827e+00 3.779888999999999832e+00 2.105729000000000184e+00 6.098949000000000176e+00 6.685389999999999944e-01 1.159905900000000045e+01 5.510029000000000288e+00 7.636308999999999791e+00 5.522848999999999897e+00 9.500958999999999932e+00 1.111375899999999994e+01 1.264609000000000094e+00 9.588259000000000754e+00 2.396129000000000175e+00 3.836238999999999955e+00 7.311059000000000196e+00 2.270229000000000052e+00 1.058865899999999982e+01 1.111915899999999979e+01 9.964658999999999267e+00 1.164165900000000065e+01 1.070235899999999951e+01 2.488958999999999921e+00 8.676258999999999943e+00 5.807689999999999797e-01 1.078595900000000007e+01 3.635168999999999873e+00 9.953858999999999568e+00 9.891590000000000105e-01 4.028390000000000026e-01 8.160258999999999929e+00 1.117185899999999954e+01 5.492418999999999940e+00 1.988669000000000020e+00 7.220339000000000063e+00 1.138435899999999990e+01 9.874558999999999642e+00 9.685059000000000751e+00 1.094829000000000052e+00 9.439290000000000180e-01 9.381759000000000626e+00 6.284368999999999872e+00 2.865359000000000211e+00 1.868578999999999990e+00 3.335239000000000065e+00 4.435008999999999979e+00 1.026265899999999931e+01 1.860578999999999983e+00 3.207168999999999937e+00 3.921358999999999817e+00 3.437659000000000020e+00 1.615758999999999945e+00 2.638989999999999947e-01 1.888209000000000026e+00 4.451889000000000429e+00 1.095115900000000053e+01 9.626890000000000169e-01 6.941628999999999827e+00 6.427058999999999855e+00 7.287719000000000058e+00 8.783958999999999406e+00 5.858099000000000167e+00 1.447929000000000022e+00 2.125818999999999903e+00 6.206489000000000367e+00 6.938908999999999772e+00 3.967969000000000079e+00 3.635900000000000243e-02 1.110295900000000024e+01 9.225290000000000434e-01 7.633748999999999896e+00 1.128055900000000022e+01 5.543179000000000300e+00 4.846118999999999843e+00 1.051685900000000018e+01 9.770459000000000671e+00 5.289149000000000100e+00 5.381668999999999592e+00 1.010609000000000091e+00 6.862229000000000134e+00 8.955059000000000324e+00 7.621899999999999509e-02 8.309259000000000839e+00 9.817458999999999492e+00 1.971738999999999908e+00 4.023729000000000333e+00 7.560489999999999711e-01 1.142838999999999938e+00 5.161948999999999899e+00 2.643308999999999909e+00 7.914339000000000013e+00 8.585259000000000640e+00 9.808390000000000164e-01 6.607329000000000008e+00 2.293090000000000128e-01 3.666678999999999800e+00 2.819509000000000043e+00 8.854459000000000302e+00 4.589298999999999573e+00 1.482008999999999910e+00 7.997759000000000285e+00 9.009959000000000273e+00 6.038839000000000290e+00 8.953258999999999190e+00 1.883148999999999962e+00 1.020255900000000082e+01 9.118959000000000259e+00 8.088559000000000054e+00 5.616790000000000393e-01 1.049125899999999945e+01 9.674958999999999421e+00 9.682658999999999239e+00 8.113459000000000643e+00 8.039559000000000566e+00 3.344459000000000071e+00 7.906718999999999831e+00 1.548448999999999964e+00 4.704219000000000150e+00 1.177525900000000014e+01 7.611239000000000310e+00 3.365199000000000051e+00 1.624089999999999978e-01 7.165929000000000215e+00 5.535498999999999725e+00 7.293378999999999834e+00 5.094679000000000180e+00 3.282579000000000136e+00 4.281888999999999612e+00 8.035358999999999696e+00 4.809719000000000300e+00 9.497059000000000140e+00 2.611819000000000113e+00 7.907728999999999786e+00 1.740229000000000026e+00 9.320490000000000164e-01 1.019615899999999975e+01 6.641769000000000034e+00 3.664448999999999845e+00 1.746518999999999933e+00 5.826589000000000240e+00 4.341579000000000299e+00 1.007855900000000027e+01 3.239669000000000132e+00 7.993259000000000114e+00 1.056655899999999981e+01 5.397909000000000290e+00 2.621229000000000031e+00 2.560290000000000066e-01 5.952098999999999585e+00 1.091845900000000036e+01 1.981578999999999979e+00 2.151809000000000083e+00 2.301108999999999849e+00 2.315568999999999988e+00 1.025915900000000036e+01 1.160205900000000057e+01 2.530838999999999839e+00 7.486278999999999684e+00 3.105268999999999835e+00 6.566698999999999842e+00 4.358009000000000022e+00 6.355069000000000301e+00 9.684958999999999207e+00 8.540858999999999313e+00 2.854668999999999901e+00 2.831119000000000163e+00 1.173655899999999974e+01 7.553048999999999680e+00 8.479389999999999983e-01 5.809448999999999863e+00 8.612959000000000032e+00 2.438899000000000150e+00 1.027275900000000064e+01 6.231029000000000373e+00 6.376959000000000266e+00 8.633758999999999517e+00 9.348858999999999142e+00 8.300558999999999799e+00 6.093558999999999948e+00 7.263628999999999891e+00 6.341028999999999805e+00 7.454490000000000283e-01 5.521278999999999826e+00 4.026228999999999836e+00 1.028159000000000045e+00 9.144859000000000293e+00 5.836148999999999809e+00 6.618108999999999575e+00 5.253778999999999755e+00 5.543708999999999776e+00 3.339389999999999858e-01 1.104545899999999925e+01 1.027205900000000049e+01 7.979658999999999835e+00 4.198890000000000122e-01 2.428638999999999992e+00 4.037868999999999708e+00 2.766929000000000194e+00 3.905978999999999868e+00 6.325848999999999833e+00 9.410358999999999696e+00 8.335459000000000174e+00 4.656178999999999846e+00 7.952059000000000211e+00 6.268489999999999895e-01 6.183508999999999922e+00 2.562090000000000201e-01 3.974359000000000197e+00 1.157275899999999957e+01 1.018455900000000014e+01 3.963619000000000003e+00 3.806048999999999793e+00 4.706690000000000040e-01 1.083555899999999994e+01 4.390508999999999773e+00 1.038815899999999992e+01 2.164290000000000103e-01 5.192249000000000336e+00 3.665229000000000070e+00 5.908519000000000077e+00 1.171635900000000063e+01 1.473918999999999979e+00 1.582389000000000046e+00 2.469168999999999947e+00 7.742129000000000261e+00 6.570419000000000231e+00 1.034725899999999932e+01 3.091708999999999818e+00 5.746578999999999660e+00 8.750958999999999932e+00 3.730579000000000089e+00 1.110735900000000065e+01 1.102105899999999927e+01 4.398119000000000334e+00 7.795149000000000328e+00 2.166519000000000084e+00 7.004808999999999841e+00 8.795358999999999483e+00 4.539068999999999576e+00 2.360729000000000077e+00 1.007385900000000056e+01 4.522559000000000218e+00 5.856599000000000110e+00 5.085708999999999591e+00 3.867888999999999911e+00 5.965429000000000315e+00 7.342889000000000443e+00 1.833299000000000012e+00 4.875888999999999918e+00 1.047945900000000030e+01 2.433968999999999827e+00 5.250988999999999685e+00 5.607229000000000241e+00 4.835289000000000392e+00 1.018355900000000069e+01 3.927408999999999928e+00 9.177358999999999156e+00 1.479989999999999917e-01 8.637159000000000475e+00 1.059679000000000038e+00 7.102439000000000391e+00 1.076945899999999945e+01 1.005785900000000055e+01 7.896829000000000320e+00 4.646009000000000277e+00 9.286858999999999753e+00 1.010935899999999954e+01 4.140409000000000006e+00 3.974188999999999972e+00 4.293708999999999776e+00 1.130635900000000049e+01 1.039965899999999976e+01 1.066655899999999946e+01 6.256699000000000233e+00 8.780658999999999992e+00 4.845919000000000310e+00 7.329219000000000150e+00 1.628438999999999970e+00 5.207490000000000174e-01 5.203689999999999705e-01 3.725079000000000029e+00 4.288268999999999664e+00 9.039058999999999955e+00 2.804809000000000108e+00 4.915678999999999910e+00 3.113169000000000075e+00