-7.780900973486754810e+04
-7.739245517584063055e+04
-7.737737840724566195e+04
-7.778149161070353875e+04
-7.777349986124491261e+04
-7.776300546750627109e+04
-7.768911276197887491e+04
-7.780815422048424080e+04
-7.779572631279019697e+04
-7.775462077181653876e+04
-7.778337100986957375e+04
-7.780240494641929399e+04
-7.773868597297428641e+04
-7.775306289253450814e+04
-7.779077789176025544e+04
-7.738309177287085913e+04
-7.779346965625129815e+04
-7.780294801323118736e+04
-7.775149250838595617e+04
-7.780070998822529509e+04
-7.765332188230368774e+04
-7.776105646728539432e+04
-7.777868386128592829e+04
-7.766155951998164528e+04
-7.774578300390261575e+04
-7.767461749588126258e+04
-7.766912123518789303e+04
-7.775933560348313767e+04
-7.776204693692068395e+04
-7.768146008641127264e+04
-7.781243463017157046e+04
-7.739097337433641951e+04
-7.776746821323150652e+04
-7.767022556401624752e+04
-7.776750873383466387e+04
-7.739488825121885748e+04
