1.256801608982134999e+00 -1.388467812755267705e-01 -8.351041460083541423e-01 9.140899843140148917e-01 6.554544684110373831e-01 -2.777691529902437395e-01 1.244361068197587628e+00 -1.050036560983876877e+00 1.542218251847457866e+00 -2.382880094908653046e+00 -8.418214106827864862e-01 4.840004399280974923e-01 6.488313061200865484e-01 -4.104180324728489149e-01 6.476717384984954640e-01 -6.760932294133356057e-01 -6.987533918881280171e-01 1.373519417739899717e+00 -1.697565346134788378e+00 1.678483131114998361e-01 -2.180959005666665285e-01 -4.725857693897027034e-01 4.636002773188895310e-01 5.614230473824781686e-01 -1.670147613977085999e-01 1.336257959205204404e+00 -2.238351175176992225e+00 -1.081322775277823167e+00 2.826074553190912053e-01 -2.976571518073875544e-01 2.501087086740532706e-01 6.094605143775123635e-01 8.587639534748864323e-02 -1.071197770191734566e+00 4.055756163786032875e-01 1.337542482450762904e+00 -1.112886668736141615e-01 9.719902038510085107e-02 2.802291846983111512e-01 -1.607889374221473711e+00 1.710256826608620162e-01 -1.031459824887379417e+00 -7.976760799750354236e-01 5.610718346616149210e-01 4.844946059965450358e-01 1.605444254912974378e+00 1.147010866934106144e+00 -9.689393325876379803e-01 4.803597575507737583e-01 -1.986221579251119529e+00 7.739633077790024629e-01 1.844964131452302869e+00 -1.228766812014716825e+00 7.686128416580907396e-01 -7.109455640867649029e-01 -2.015642200937024786e-02 -1.751685015270922019e+00 1.606713865758965021e+00 3.205564268959450458e-01 1.272439059701685748e-01 -9.570006711816594902e-02 8.321993134166164041e-02 -2.218733656434773993e-01 5.845033281485523258e-01 1.701262078565661362e+00 1.571803424149287309e+00 8.356070538282723836e-01 3.244552480520000448e-01 3.740590312223631142e-01 5.162112229952681153e-01 2.581449493792534189e-01 1.566655560974232198e-01 -4.208896222937279219e-02 2.676415768007813223e-01 -1.076356432000959706e-01 -4.110474385787592222e-02 -2.535048276984596782e+00 1.778061964782903459e+00 -1.223053820318097173e+00 3.228380240298695664e-02 2.514876942575658969e+00 2.597114712428522765e+00 4.265388506266770685e-01 1.858626460560087956e+00 1.738211405150775324e+00 -4.815630339297197193e-01 -1.714057945836470198e+00 -8.819136540320535733e-01 -6.377056276009086533e-01 1.146896195723633882e+00 4.283201110440570253e-02 -1.871304057075701133e+00 -8.465424706977878744e-01 5.735308873904539917e-01 -9.703117875685812743e-01 -2.079354142540192421e-02 -1.341546718845144426e+00 1.191106318236405226e+00 -5.290163462382229120e-01 6.941248915945839038e-01 -7.224990742073458261e-01 -1.212757065526637534e+00 7.724530416572227276e-01 6.770800188882061255e-01 6.797791632100385062e-01 -2.321567506973930772e+00 -1.509668083134943828e+00 1.816239250339352296e+00 -6.432586966676772100e-01 -1.779535207016100129e+00 -3.199835850642587798e-01 -7.592972199140795020e-01 -1.709208330652777885e+00 -1.830625602157203990e-01 1.472809773609262685e+00 2.848905436929726420e+00 -5.967165833948544496e-01 -1.062881279218788277e+00 -7.893971271113469079e-01 1.922851080175994321e-01 -4.623934013952200606e-01 -1.592808824492691622e-01 -6.354764809758099986e-01 -1.029857513264817115e+00 -1.498305348884699795e-01 7.416969888789574084e-01 3.178855647112246885e+00 -6.022619391515015019e-01 -1.109053667826456202e+00 2.679562798537364343e-01 1.543366506614204381e-01 -1.491077463080227483e+00 -3.991817965085969200e-01 1.175261122364250177e+00 2.339804857425084705e+00 -2.802780356624136604e-01 -1.129269225213424432e+00 8.313976433846603786e-01 -3.882628347006739089e-01 1.493157485709644794e+00 2.355706617571463823e+00 -4.318425226661852800e-01 9.018664446542175028e-01 6.931010782311303187e-01 -3.980068022667629076e-04 1.133492519615254990e+00 -1.627316117093354997e+00 -8.619778326921567757e-01 -3.975974826096513315e-01 1.036617458255255086e-01 9.873232359310993855e-01 -2.782201245220111141e-01 1.166777509672005886e+00 -2.560343306196876334e+00 -4.668768914584810470e-01 -2.633576043593285898e-01 -6.407760392499201041e-01 -8.358204554082991899e-01 -2.485963856695744545e-01 -1.672025033660646809e+00 -9.680353326414042892e-01 -3.968251231561569226e-01 1.979051800382895410e+00 1.944516739865794763e+00 -2.478973540843012913e+00 -2.456889819744630110e-01 -1.152346934876124385e+00 -1.031128666772831881e+00 1.027538378021634724e+00 -1.912853601817247506e+00 9.258784932829626779e-01 -1.353462754541433499e+00 1.042539737766503327e+00 -5.751002888898313348e-01 8.505209960584312334e-01 -1.775974228843364700e-01 -8.835966983005536513e-01 2.131079600214629000e-01 -1.197742336044225198e+00 1.504280593125449039e+00 -1.010926993344082536e+00 1.505925070843341818e+00 1.723557144361371973e+00 -3.477088211854694189e-01 1.573823797180432305e+00 -2.456014101935508176e+00 9.643581405961720865e-01 -6.626797831121359339e-01 -1.030122851132995038e-01 -9.006091751044214000e-01 -3.846931147764673375e-01 8.073583410601526955e-01 -1.437272496997048510e-01 -1.382934798294815082e-01 -3.889765729972452513e-01 -6.494262594407875788e-01 1.873413390283580116e+00 -1.748464965405554628e+00 -2.526098780361017426e-01 1.871296343765579628e+00 -2.082940317525991514e+00 1.050788865831055574e+00 1.309046943758756854e+00 -9.059457572671144598e-01 -1.656478085779854226e+00 5.456282451364499186e-01 7.840939692925134041e-01 -4.753661605781476368e-02 -6.733791726919350351e-01 2.666753561529011662e-01 -1.703039225217642949e+00 1.223650316300822549e+00 3.125690371548472957e-02 -1.648940124908499616e+00 7.523166742541682606e-01 7.429609432975256000e-01 5.603010178701447463e-01 -9.662962383193548499e-01 4.723235168455734434e-01 -4.621234355409693517e-01 3.444044391294407564e-02 4.877033430070676912e-01 -3.130194944659399070e-01 -1.231933382929909060e+00 4.453372158339975462e-01 1.320930583552536008e+00 -1.452888864668933966e+00 1.556977927875187739e-01 -1.706714360380175988e+00 1.461070629825092171e+00 1.927062547502305934e-01 -6.865293380076559204e-01 7.388404930306474716e-01 -1.037549226117925993e+00 -1.155927967655176136e+00 2.341308438678092185e-01 -9.830845149090258195e-01 9.458724215591076678e-01 9.450697230858022824e-01 -9.127710082832471983e-01 1.585309430171944145e+00 1.925080741021768072e+00 1.846827667177644905e+00 -1.191283210148523786e+00 -6.054845601202428484e-02 1.547301323217492808e+00 4.068606538448366616e-01 7.057200535898207061e-01 8.861750007638166116e-01 -1.540594857177230326e+00 -1.340748134137237368e-01 -1.268324265862230238e+00 -9.516496908400730037e-01 3.194858194510878935e-01 2.014079998527094073e+00 -1.553820612932141465e+00 -1.239315534936810348e+00 -9.445555024110389164e-01 -1.188706964567959989e+00 9.792211749795294295e-01 -6.026038959002190110e-01 -5.210073592287851607e-01 7.950653816092623227e-01 9.977367188157301170e-01 4.191695541366448619e-01 8.795646939897350247e-01 1.142302148215299074e+00 -2.412512575512560931e-01 5.014448620987663752e-01 -1.284122153432306901e-01 -3.041193630271373793e-01 -7.167711701111579847e-01 3.923555170511146550e-01 -6.636583450562104636e-01 1.575361316997974381e-01 1.053699869070890527e+00 4.667056559737848831e-01 2.489062036261193711e+00 -3.645526336080147645e-01 -2.147809769868051610e+00 5.586976778062329174e-01 1.867541504398458618e-01 -1.315097778438696130e+00 1.853101673630431323e+00 1.059315673059979979e+00 1.682530047825385108e-02 9.158707305107200991e-01 -1.357715873742400436e+00 8.125545409786355533e-01 -3.322071247240561687e-01 7.080654140874159674e-01 -2.730902590705728827e-01 -2.016833650240451359e+00 1.360204701808254590e+00 -4.715686408950209851e-01 7.914087583910207613e-01 8.217688612497183742e-01 -1.952501044282843878e-01 -1.437045725679477970e+00 -1.859279006596362027e+00 1.661115327824869370e+00 -8.458930099855618487e-03 4.359341765752766662e-01 -7.956356523375747170e-01 1.177414164329483981e+00 -9.926839864655062629e-01 1.189989430930819436e+00 -2.866497440434052080e-01 -9.111969787977969304e-01 1.084427125491369104e+00 1.287865679944583397e-01 1.593155923448156930e+00 1.366064246397182158e+00 9.258594671179964930e-01 4.707119492508653469e-01 -1.705082738179152235e+00 1.372431326792100670e+00 -9.723542720887409230e-01 -3.935474805752158800e-01 2.501045949086551090e+00 2.800697762891345421e-01 1.279931254932986429e+00 5.172751455713534008e-02 1.286657261358890025e-01 -1.477890273875923643e+00 1.266612939456617903e+00 9.816153864412271446e-01 1.652779810686956896e+00 -5.616996981055007998e-01 5.140869773878210813e-02 1.286403750566231352e+00 -4.730459968936158721e-01 -2.325388166587421535e-01 1.048458417733028503e+00 -1.728714263508572380e+00 1.809830518069777683e-01 -1.636495984579228402e+00 -1.362932128267198895e+00 -3.196750526594008268e-01 8.538598308996691033e-01 -4.244495720251139637e-01 9.780096710697872009e-01 -1.385567608149602670e-01 -5.631045489889540123e-01 -1.114126454782995657e+00 -3.876709667040212880e-03 -1.078020964325168363e+00 3.977666612116484424e-01 1.431113675975409061e+00 -1.400895498022945995e+00 -2.215067263023711985e-01 1.943949554461530949e-01 -4.265522203642209131e-01 -4.376994961517389343e-02 -2.115966654583336937e-01 -9.815444239881097183e-03 5.881378398777790117e-01 7.387371346750201129e-01 8.372211925263544074e-01 5.072930938328489292e-01 -1.041414108709446618e+00 -2.387234001361874025e+00 -6.959555171967412024e-01 1.046011755762504825e+00 -8.963714825236973605e-01 -9.299855738122968507e-01 -1.815810904517274560e+00 1.460168686761557533e+00 5.010257722488342669e-01 9.809633546256273096e-02 -5.076875010903922902e-01 2.605694998607621660e-01 -2.135897847937160421e+00 -1.198365571502038318e-01 1.681643017161418729e+00 1.002396072349760053e-01 1.606838307162257840e+00 -1.025645531717831238e+00 -9.771972024036611471e-01 5.963843968389573869e-01 -2.439062817391937532e+00 3.446255540195888867e-01 -1.267538536671191984e+00 -1.026147925317075077e-01 -2.007712403911500409e+00 4.504316000588771962e-02 1.221767240189839399e+00 -4.978334902999040357e-01 -1.083729842256390130e+00 5.074329618563844235e-02 -1.271477981260553447e+00 2.556077845699715190e-01 -1.047784788649088750e+00 7.574722507393447657e-01 -3.794100115639496007e-01 -2.666809611582560802e+00 1.738554390340842248e+00 2.131907495500997771e-02 -1.435034608620479046e+00 2.346258841114038152e+00 3.092122045899927119e-01 -1.861759092910745483e+00 1.530817465267281685e+00 -2.584575955495095112e+00 -4.519022711887001054e-02 1.514884337659742064e+00 -1.870142946792085814e+00 7.925133044004122329e-01 7.667338793125058616e-02 1.132663595887536401e-01 -1.300131385699711650e+00 3.458967075276037084e-01 2.436526681024004937e-01 6.833098023629631257e-01 9.011640192124908966e-01 -1.906524573752261045e-02 2.821425998291052228e-01 1.433241006906904591e+00 6.488719295533929010e-01 -4.815028701107724185e-01 -1.057998753911911116e+00 -6.778189539978410894e-01 -6.099798772590232510e-01 -5.406984115274945379e-01 6.715135800838939462e-01 6.890886143059525848e-01 -2.469971593710607316e-01 7.805067658653649376e-01 -1.815857184378003031e-01 6.553336265524680737e-01 -5.354353629212925680e-01 4.591898065914450378e-01 4.539910355695884747e-01 5.137892436171331845e-01 1.981452182492690506e+00 2.142652136500176052e+00 3.266298872855739055e-01 -5.760058314980893712e-01 1.427771755810122611e+00 -2.019080794589166672e+00 -2.640305135343237630e+00 -5.191854753780987819e-01 1.094539275060588401e-01 9.519309695491683376e-01 3.431296860767025780e-01 -1.020650906303855604e-01 1.364873311314430238e+00 -2.155690201708798659e-01 -1.076685019012133315e+00 -1.247988380837367517e+00 2.519203081112442177e-01 2.137846744294513435e-01 -1.230634461505457189e+00 -2.586328419554688285e+00 -2.071152322777718879e+00 3.123921966647962289e+00 1.274220834339740316e+00 -1.000784504755051874e+00 -8.210782628835113783e-01 1.634104858441579600e+00 4.730418831282176551e-02 -1.422533389796309278e+00 2.501765858031220202e-01 -6.542378222945474664e-02 -7.271126621013217495e-01 1.243647844121690937e+00 5.254749084511282087e-01 -9.214937335892564585e-01 1.286313761948147949e+00 1.043118750246286863e+00 -2.708446573838816929e-01 1.127998585926084152e+00 -1.924161314455291372e+00 -1.052666285514616273e+00 2.146387949702331377e-01 9.499743598816942081e-01 1.543694579404703227e+00 1.136711541039272744e+00 -4.324549594898283722e-01 1.347493680948781636e+00 -1.086601764724942853e+00 1.343318209069704006e+00 1.217827281379803228e+00 -8.187735258192223586e-01 1.745715427457595670e+00 -1.194234836821664869e+00 1.741677252498679662e+00 -7.549479414469319194e-02 1.088829368688017274e+00 -1.947209713539529985e-01 3.250394027385311579e-01 2.574445808202259142e-02 1.702278178618993554e+00 1.422502536555823482e+00 -1.961519446476842399e+00 1.310908936822074766e+00 2.036480479561130874e+00 -1.141664514578592637e+00 -3.327234022815184766e-01 -7.996558295728738441e-01 6.290626064994878641e-01 1.137709129148313680e+00 5.040272783274274415e-01 4.162986601094416095e-01 3.871674932413606829e+00 1.738288024031314771e+00 -5.531821468487222448e-01 -2.373724910015168277e+00 2.012999106668741656e-01 1.302679863363838342e+00 -1.659416342715451576e+00 -1.567488084246673852e+00 -8.484137197332514146e-01 8.510089914787816179e-01 9.171639955077498518e-01 -6.348568450627201966e-03 -1.005800213216692801e-01 6.827580435789420976e-01 -1.200112893354883692e+00 -7.995252175214839774e-01 8.275487016340574709e-01 -5.952047746110504800e-01 1.819807427601534355e+00 -2.383446766092242708e+00 5.633184647896555958e-02 1.528031417651414259e+00 -1.254852198404107444e+00 1.541468518103653151e+00 -8.115353556012547820e-01 3.886058198907410000e-01 1.625482406167149341e+00 -1.916249515153383598e+00 -3.996564221914034043e-01 1.224282293510106534e+00 6.821389218865271387e-01 6.346665834130578165e-01 -6.316326814319546401e-02 6.364205901346752237e-01 -3.287844204907644396e+00 -1.675719709208820740e+00 -1.094758847288712422e+00 -7.479951637034578660e-01 4.544337795705596372e-01 -1.027601627164630438e+00 -1.188065217165855447e+00 8.080617949432290503e-01 -9.022773069733533435e-02 1.348375055185325744e+00 -1.386273633136052785e+00 -2.350062531445262337e+00 1.370086480515180227e+00 6.741474183800313380e-01 -7.369553600369654900e-01 1.898300128280097754e+00 -6.562114012442888944e-01 3.775305349976899177e-02 1.691926916436009121e+00 1.127686453976502801e+00 3.556062223084835994e-01 4.301774761213019715e-01 9.236220929621014042e-01 -1.684648637005409788e-01 2.048898908856663592e+00 3.479371351650643041e-01 -1.090194624579513549e+00 9.191781978907973549e-01 8.697888447418106184e-02 1.430037412103129513e-01 -1.399660339962164768e+00 -7.684477768214916793e-01 1.252123743503813502e+00 -1.585425129823766044e+00 8.549700333364829152e-01 -6.099438818117899341e-01 -2.496993890169416641e-01 5.264241598167411773e-01 -2.687044709355170258e-01 -7.624195678512420138e-02 1.450217488263539023e+00 1.117148015467904765e+00 -1.050786808948356521e+00 -1.532758134093838154e-01 1.234741542034791140e+00 -1.390901619208922080e+00 8.780220319654451488e-01 -9.715515736154354265e-01 3.008957136170465896e-01 -7.270437565309035843e-01 1.638569322339874235e-01 2.858347042739054628e-02 1.077636841481120211e-01 -4.975434698393375599e-01 -6.221195989488343542e-02 7.445041195424900726e-02 -1.090925846379027009e+00 -1.653633931227738829e+00 9.478835386181068412e-02 -9.606310691454880701e-02 7.617767920077879173e-01 -3.032045644467335488e-01 -1.827557247390891648e+00 2.830419717892662113e-01 -1.232144727627236813e+00 1.006040354271807269e+00 -1.730924383968705405e+00 -1.824036892651462294e+00 -3.650349726009426976e-01 9.325798171164774164e-01 7.095211728176707977e-01 5.850082928511698421e-01 2.190482372563280766e-01 -2.961756820433946724e-01 1.558051620644093527e+00 -2.051843850661033475e+00 -9.965396130848810374e-01 -1.280983350433552159e+00 1.970736852071973910e+00 -2.492808133876844023e-01 -1.630058970172542088e-01 -5.587969223964621701e-01 -5.466386887623596591e-01 -2.180624762228069169e-01 4.542162642251347526e-02 9.267572964161330251e-01 9.769786586168868192e-01 -8.958716600278273656e-01 8.696494909389496097e-01 -3.639576802873136230e-01 5.457295466093783354e-01 -1.851534843234427852e+00 9.510393108991289646e-01 -9.750919829611804923e-01 9.110082598101587603e-01 2.855488490008045499e+00 1.191797945043961970e+00 1.007660149397311633e+00 -1.120027137025904285e+00 5.985158415358511341e-01 -1.004715721813617124e+00 4.801129316268872849e-01 -1.127931223017690110e+00 -1.666440082912042930e-01 6.430761483281361990e-01 5.081970937790827314e-01 1.933623489091610415e+00 2.979836819358621658e-01 8.206833414052931985e-01 8.305862031598840733e-01 5.065073646418106340e-03 -4.171476384434756324e-01 -7.335671600109503476e-01 2.314754083033317977e-01 1.898659054311082173e+00 -1.593937538873797077e+00 -1.651926718587524601e+00 2.446230025156787669e+00 -6.260564724348217647e-01 1.507220906943745442e+00 5.846678787644765674e-01 1.218552846751894236e+00 -1.747988282840049257e+00 4.722566681578542203e-01 -8.582240217663850146e-02 1.561788462287598156e+00 -2.597890157206065531e+00 -2.221078502711694436e-01 2.910792409358159416e-01 -3.981045041949679564e-02 1.909815071850070822e+00 6.923827119484859960e-01 -1.381142739243264916e+00 -1.881706741326161891e+00 -1.888518622604751007e+00 5.821060313628060312e-01 3.344383282318539319e-01 1.344242777842928005e+00 -1.013963980649234209e+00 1.389108017495347847e+00 6.155504298287336473e-01 -3.068010238460278094e-01 3.102313899673735387e-01 4.604177655627796906e-01 3.121617743804348533e-01 4.257022135888373082e-01 -3.725770472376954134e-01 1.065156705704615875e-01 -8.709057320473965191e-01 7.703385662425961400e-02 6.526468235268299001e-01 2.145713292177041431e+00 -1.210202931435088392e+00 -1.038543214682243310e+00 6.808024623528174946e-02 -6.686514278081615581e-01 8.382558045239780764e-01 -6.724695163182787816e-01 2.227472322581701025e+00 3.697112954172397936e-01 -2.297916955479543777e+00 -2.286167013061203956e+00 1.237656144819349269e+00 -3.790058341135857378e-01 -1.311328540892681582e+00 -6.408074067110807182e-01 -6.609699993685481667e-01 1.541715858248214055e-01 -1.883702945985592958e+00 1.034993035143677576e+00 2.890712092008654310e-01 -1.114901385339863937e+00 1.480304025723262473e+00 -7.640419340801201109e-01 4.796665880811927796e-01 -1.096672262419506438e+00 1.730287778773348384e+00 4.392622127823443967e-01 -9.368540193651098136e-01 1.712460776420655639e+00 -1.627474497061181857e+00 -8.723512063641558623e-01 -1.476273564074467970e+00 -1.044870700085205328e+00 -9.691033689828875142e-01 8.663075707736634171e-03 5.321762322846430582e-01 -6.795529061131427850e-02 2.866913959180610871e-01 9.299279810967234772e-01 7.480059623376278388e-02 4.860449813309563050e-01 6.595656627057695509e-01 9.023600965019901166e-01 6.462406623606292699e-01 7.427881651508051464e-01 7.184321028906432982e-01 -6.719799782359041629e-01 -8.670161668634870367e-01 4.868029426055573428e-01 9.322995668487316090e-01 -9.159859159418671792e-01 -9.641118288929606539e-01 -1.145169442697778900e-01 -1.280112260610503094e+00 -1.756911554209215964e+00 1.322434679026218474e+00 -1.417418436744439125e+00 2.206243236244774530e-01 -1.071301128547362147e+00 1.485733167607413030e+00 -2.806482745482432595e-01 -1.118075155344502858e-01 1.846633291762584395e-01 -9.173763686464269096e-01 -5.649598571834998362e-01 1.649299050939484257e+00 1.698175211855057487e+00 7.778055646608335039e-01 -7.136153978301358336e-01 -3.169543110692283339e-01 9.143059569974156808e-01 1.603170371089171209e-01 -1.538472668452482317e+00 1.653435442047280213e-01 -1.547836112719246593e+00 4.838862829383000497e-01 -2.286898749081391902e-01 -5.648971222611787885e-02 -1.113167433224562242e+00 -1.677701515689358214e-01 1.234418611451039816e+00 1.166017491514705906e+00 -2.964781980663578231e+00 -1.028043342724252351e+00 -1.721887984051090115e+00 -9.925425757799464233e-01 -6.037146125577077527e-01 -1.272480711576341461e+00 6.579237560912505334e-01 -4.131043212778121587e-01 8.250645015542760197e-01 -6.264169411278308619e-01 9.548018635763717565e-01 4.648092101252579433e-02 -1.380662457133036147e+00 5.761760385414360641e-01 4.557620115734731803e-01 5.043815763723393797e-01 1.447960059501328223e+00 1.283677352548636907e+00 -2.966163691616667264e-01 -6.726695481607617433e-01 -8.717685943396492609e-01 -5.995437686647028253e-01 -4.608085732755997643e-01 -3.700445104144863828e-01