2.514752999999999794e+00 5.307802999999999827e+00 9.280632999999999910e+00 9.695532999999999291e+00 3.102222999999999953e+00 5.786382999999999832e+00 4.735962999999999923e+00 4.914983000000000324e+00 1.166163300000000014e+01 1.534243000000000023e+00 7.087532999999999639e+00 9.052232999999999308e+00 1.045743299999999998e+01 4.959992999999999874e+00 9.934730000000000505e-01 6.724083000000000254e+00 9.301532999999999163e+00 6.154862999999999751e+00 7.897592999999999641e+00 6.140933000000000419e+00 3.689953000000000038e+00 7.592563000000000173e+00 8.250132999999999939e+00 9.688732999999999151e+00 2.032023000000000135e+00 4.083729999999999860e-01 2.963013000000000119e+00 3.413193000000000144e+00 2.180642999999999887e+00 3.401723000000000052e+00 4.801643000000000328e+00 6.383763000000000076e+00 6.982693000000000261e+00 1.046413300000000035e+01 9.134632999999999114e+00 5.274973000000000134e+00 8.217330000000000467e-01 7.088413000000000075e+00 2.490212999999999788e+00 6.210993000000000208e+00 1.155843300000000085e+01 6.852382999999999669e+00 1.034823300000000046e+01 9.794033000000000655e+00 1.141583299999999923e+01 1.091973300000000080e+01 5.731853000000000087e+00 1.072513299999999958e+01 8.362932999999999950e+00 2.803752999999999940e+00 6.940323000000000242e+00 1.131383300000000069e+01 1.852252999999999927e+00 6.648753000000000135e+00 5.318342999999999599e+00 8.417932999999999666e+00 1.360042999999999891e+00 1.051483299999999943e+01 1.959222999999999937e+00 7.885300000000000642e-02 1.358662999999999954e+00 8.863932999999999396e+00 1.078573300000000046e+01 1.106783300000000025e+01 7.303903000000000034e+00 8.165729999999999933e-01 8.201033000000000683e+00 1.104763299999999937e+01 1.111093299999999928e+01 7.607429999999999470e-01 5.379429999999999490e-01 1.056683300000000081e+01 8.441133000000000663e+00 6.007552999999999699e+00 1.015713299999999997e+01 8.662133000000000749e+00 8.051133000000000095e+00 5.352443000000000062e+00 2.393642999999999965e+00 1.007793299999999981e+01 2.745452999999999921e+00 4.491742999999999597e+00 1.073903299999999916e+01 6.258573000000000164e+00 5.412230000000000096e-01 1.020902999999999894e+00 1.260593000000000075e+00 5.062603000000000186e+00 2.959893000000000107e+00 3.380962999999999941e+00 5.696412999999999727e+00 1.006693300000000058e+01 1.836723000000000106e+00 3.408872999999999820e+00 7.890482999999999691e+00 8.238232999999999251e+00 8.148332999999999160e+00 5.549323000000000228e+00 8.316032999999999120e+00 7.163393000000000121e+00 4.269612999999999658e+00 3.525393000000000221e+00 2.909972999999999921e+00 9.437132999999999328e+00 6.490323000000000064e+00 2.236333000000000126e+00 3.724912999999999919e+00 4.755263000000000240e+00 9.539332999999999174e+00 6.606383000000000116e+00 2.251692999999999945e+00 4.076830000000000176e-01 5.465042999999999651e+00 7.865962999999999816e+00 1.749932999999999961e+00 1.155083000000000082e+00 6.717082999999999693e+00 5.742543000000000397e+00 8.320532999999999291e+00 9.730833000000000510e+00 4.162112999999999730e+00 1.943742999999999999e+00 1.118413299999999921e+01 6.544782999999999795e+00 2.751730000000000009e-01 2.458683000000000174e+00 4.497272999999999854e+00 5.841643000000000363e+00 3.518102999999999980e+00 5.112693000000000154e+00 6.747952999999999868e+00 1.133533300000000033e+01 6.881422999999999845e+00 8.474633000000000749e+00 1.901730000000000087e-01 8.944732999999999379e+00 6.232842999999999911e+00 6.696012999999999771e+00 7.039432999999999829e+00 2.543483000000000160e+00 1.173073300000000074e+01 3.716992999999999991e+00 9.733033000000000712e+00 7.072030000000000260e-01 1.420333000000000068e+00 3.474803000000000086e+00 7.845432999999999879e+00 2.954632999999999843e+00 2.688982999999999901e+00 9.134733000000000658e+00 8.986333000000000126e+00 7.980233000000000132e+00 1.098143000000000091e+00 9.247332999999999359e+00 3.001843000000000039e+00 7.130030000000000534e-01 7.441792999999999658e+00 2.381743000000000166e+00 8.470933000000000490e+00 6.534132999999999747e+00 5.960403000000000340e+00 9.794532999999999490e+00 2.026273000000000213e+00 1.153643300000000060e+01 8.698532999999999404e+00 1.150233300000000014e+01 8.082233000000000445e+00 1.013963299999999990e+01 1.994430000000000092e-01 1.020443299999999986e+01 7.655782999999999561e+00 6.448629999999999640e-01 8.458729999999999860e-01 4.765513000000000332e+00 2.676543000000000117e+00 7.046492999999999896e+00 6.028712999999999766e+00 1.174693300000000029e+01 1.103113300000000052e+01 2.795793000000000195e+00 1.094533299999999976e+01 3.616052999999999962e+00 7.860933000000000170e+00 7.067393000000000036e+00 2.607943000000000122e+00 1.982232999999999912e+00 4.633923000000000236e+00 3.269022999999999790e+00 5.518333000000000155e+00 8.521233000000000501e+00 6.652329999999999632e-01 1.287762999999999991e+00 4.159032999999999980e+00 4.243793000000000148e+00 2.085662999999999823e+00 9.085333000000000325e+00 6.632742999999999611e+00 1.164553300000000036e+01 7.606563000000000407e+00 8.220929999999999627e-01 5.185023000000000160e+00 8.810033000000000669e+00 2.798532999999999937e+00 4.288513000000000019e+00 8.730332999999999899e+00 1.073463300000000054e+01 3.682332999999999856e+00 4.192883000000000138e+00 1.003243299999999927e+01 8.717933000000000376e+00 5.458330000000000126e-01 9.861933000000000504e+00 5.890093000000000245e+00 4.732430000000000248e-01 4.752143000000000228e+00 3.645713000000000203e+00 2.681273000000000017e+00 7.813482999999999734e+00 3.598843000000000014e+00 1.104393300000000089e+01 2.897663000000000100e+00 3.801143000000000161e+00 1.929802999999999935e+00 1.086743300000000012e+01 1.394630000000000036e-01 9.624033000000000726e+00 2.939592999999999900e+00 9.711833000000000382e+00 3.207923000000000080e+00 3.654062999999999839e+00 1.074973300000000087e+01 2.397782999999999998e+00 6.675202999999999776e+00 1.122553300000000043e+01 4.934903000000000262e+00 7.625123000000000317e+00 3.236082999999999821e+00 3.110342999999999858e+00 4.881142999999999788e+00 6.638663000000000203e+00 9.548833000000000126e+00 7.307102999999999682e+00 9.004333000000000808e+00 7.504929999999999657e-01 4.819543000000000355e+00 1.165323300000000017e+01 2.517752999999999908e+00 4.938762999999999792e+00 4.389730000000000021e-01 2.442213000000000189e+00 5.878053000000000416e+00 2.630933000000000188e+00 1.063083300000000087e+01 6.601643000000000150e+00 5.342552999999999663e+00 8.356932999999999723e+00 8.480432999999999666e+00 2.932423000000000002e+00 5.617229999999999723e-01 6.682402999999999871e+00 4.665232999999999741e+00 4.726013000000000019e+00 8.263932999999999751e+00 6.245223000000000191e+00 5.886743000000000059e+00 5.774943000000000382e+00 1.767503000000000046e+00 8.672632999999999370e+00 1.054223299999999952e+01 5.535593000000000430e+00 5.691502999999999979e+00 3.127733000000000096e+00 7.214203000000000365e+00 2.864562999999999970e+00 1.101663300000000056e+01 4.683003000000000249e+00 1.097013300000000058e+01 1.066502999999999979e+00 1.015003300000000053e+01 9.176833000000000240e+00 5.073729999999999629e-01 7.897253000000000078e+00 4.173593000000000330e+00 1.159613300000000002e+01 3.967330000000000023e-01 6.794972999999999708e+00 9.779832999999999998e+00 8.154332999999999387e+00 5.434523000000000437e+00 1.126312999999999898e+00 1.063182999999999989e+00 1.003833299999999973e+01 1.022503299999999982e+01 7.110813000000000272e+00 1.024043299999999945e+01 1.085883300000000062e+01 1.941502999999999979e+00 6.743673000000000251e+00 7.378623000000000154e+00 6.298072999999999588e+00 3.304822999999999844e+00 1.022843300000000077e+01 1.026673300000000033e+01 5.147372999999999976e+00 2.251663000000000192e+00 9.155832999999999444e+00 3.386483000000000132e+00 2.458652999999999977e+00 7.091722999999999999e+00 1.044483299999999915e+01 1.148813299999999948e+01 8.955432999999999311e+00 1.093763299999999994e+01 9.754629999999999690e-01 3.506733000000000100e+00 6.230802999999999869e+00 5.162430000000000074e-01 1.071183300000000038e+01 1.587729999999999975e-01 1.986922999999999995e+00 1.055403300000000044e+01 4.331802999999999848e+00 1.075533300000000025e+01 1.605253000000000041e+00 3.638752999999999904e+00 1.129213299999999975e+01 9.262733000000000771e+00 5.962613000000000163e+00 8.211133000000000237e+00 5.402652999999999928e+00 9.672833000000000681e+00 8.035332999999999615e+00 2.614933000000000174e+00 9.216632999999999853e+00 5.304702999999999946e+00 9.249632999999999328e+00 9.158032999999999646e+00 1.004313299999999920e+01 1.056353299999999962e+01 1.082283299999999926e+01 5.039152999999999771e+00 7.989333000000000240e+00 2.402572999999999848e+00 8.148533000000000470e+00 7.139842999999999940e+00 1.830772999999999984e+00 1.011313299999999948e+01 1.052953300000000070e+01 3.117903000000000091e+00 9.101032999999999262e+00 9.080133000000000010e+00 1.828092999999999968e+00 5.925529999999999964e-01 9.780333000000000609e+00 7.829812999999999690e+00 9.662233000000000516e+00 3.253803000000000001e+00 5.593092999999999648e+00 9.756633000000000777e+00 9.202033000000000129e+00 3.271029999999999771e-01 1.943192999999999948e+00 3.933302999999999994e+00 8.483733000000000857e+00 3.299262999999999835e+00 9.017732999999999777e+00 1.440712999999999910e+00 6.010712999999999973e+00 3.750229999999999952e-01 4.472533000000000314e+00 4.452403000000000333e+00 3.490902999999999867e+00 3.751012999999999931e+00 1.797203000000000106e+00 8.446332999999999203e+00 8.027632999999999797e+00 6.905332999999999721e+00 5.764312999999999576e+00 9.690533000000000285e+00 5.648123000000000005e+00 5.670453000000000188e+00 4.068213000000000079e+00 9.276232999999999507e+00 5.594352999999999909e+00 8.854433000000000220e+00 1.115393300000000032e+01 6.907973000000000141e+00 8.043333000000000510e+00 9.467033000000000698e+00 9.003733000000000430e+00 5.601602999999999888e+00 8.883133000000000834e+00 2.728152999999999828e+00 9.786232999999999294e+00 5.259393000000000207e+00 1.144313299999999956e+01 1.165893299999999932e+01 9.482632999999999868e+00 1.072873300000000008e+01 9.345029999999999726e-01 5.593042999999999765e+00 2.455493000000000148e+00 1.877353000000000049e+00 3.911792999999999854e+00 1.123783300000000018e+01 5.243229999999999835e-01 7.795632999999999591e+00 1.282302999999999971e+00 2.471029999999999893e-01 3.113553000000000015e+00 6.944403000000000326e+00 1.177833299999999994e+01 4.728003000000000178e+00 1.040543300000000038e+01 4.201863000000000348e+00 2.749753000000000114e+00 2.213912999999999798e+00 2.949692999999999898e+00 1.168653300000000073e+01 1.140723299999999973e+01 1.230402999999999913e+00 4.613113000000000241e+00 8.775133000000000294e+00 8.968533000000000754e+00 1.159383300000000006e+01 9.222433000000000547e+00 9.628633000000000663e+00 3.510813000000000184e+00 7.233113000000000348e+00 3.864742999999999817e+00 1.176843299999999992e+01 5.344102999999999604e+00 8.464432999999999652e+00 6.511822999999999695e+00 1.139532999999999907e+00 1.352252999999999927e+00 1.031943300000000008e+01 8.528532999999999475e+00 6.256629999999999692e-01 1.174443300000000079e+01 1.825229999999999908e-01 2.984973000000000098e+00 3.679502999999999968e+00 7.485992999999999675e+00 1.009753300000000031e+01 2.022133000000000180e+00 3.123743000000000158e+00 4.076552999999999649e+00 6.925053000000000125e+00 5.725362999999999758e+00 1.152443000000000106e+00 8.452332999999999430e+00 9.365933000000000064e+00 4.891682999999999559e+00 3.031829999999999803e-01 7.334893000000000107e+00 9.213433000000000206e+00 1.168853299999999962e+01 2.680912999999999879e+00 6.714102999999999710e+00 1.027983000000000091e+00 6.224142999999999759e+00 2.075712999999999919e+00 5.683129999999999571e-01 4.482413000000000203e+00 8.250432999999999240e+00 3.310512999999999817e+00 5.607833000000000290e+00 9.777032999999999419e+00 3.869813000000000169e+00 1.697262999999999966e+00 3.569793000000000216e+00 1.046203299999999992e+01 3.442912999999999890e+00 6.206493000000000038e+00 1.603323000000000054e+00 8.375733000000000317e+00 1.006013300000000044e+01 3.759742999999999835e+00 4.562242999999999604e+00 1.144563300000000083e+01 1.138183300000000031e+01 1.008793299999999959e+01 6.012463000000000335e+00 1.054033300000000040e+01 5.725563000000000180e+00 1.780372999999999983e+00 7.607732999999999635e+00 4.970292999999999850e+00 2.352933000000000163e+00 7.258623000000000047e+00 2.209522999999999904e+00 2.848952999999999847e+00 2.207972999999999963e+00 1.050813300000000083e+01 7.851892999999999567e+00 9.258333000000000368e+00 5.295333000000000290e+00 1.127683299999999988e+01 1.081523299999999921e+01 6.512253000000000291e+00 4.057992999999999739e+00 1.348573000000000022e+00 7.767030000000000323e-01 6.132093000000000238e+00 1.082113299999999967e+01 2.897772999999999932e+00 9.963933000000000817e+00 7.836743000000000237e+00 5.909299999999999969e-02 5.943373000000000239e+00 2.398592999999999975e+00 8.814629999999999965e-01 3.684803000000000051e+00 5.996353000000000044e+00 1.738830000000000098e-01 1.008083300000000015e+01 8.879533000000000342e+00 6.661052999999999891e+00 7.595963000000000243e+00 7.620612999999999637e+00 3.871322999999999848e+00 1.021443299999999965e+01 7.381130000000000191e-01 1.129673299999999969e+01 1.174543300000000023e+01 7.121172999999999753e+00 6.000103000000000186e+00 4.815093000000000067e+00 8.026433000000000817e+00 1.069143299999999996e+01 1.138363299999999967e+01 1.166413299999999964e+01 4.194632999999999612e+00 7.850972999999999757e+00 3.370442999999999856e+00 1.005112999999999923e+00 4.356353000000000364e+00 2.065303000000000111e+00 4.438043000000000404e+00 2.721792999999999907e+00 4.558152999999999899e+00 1.776453000000000060e+00 3.876412999999999887e+00 8.330033000000000243e+00 1.199483000000000077e+00 2.016652999999999807e+00 9.924832999999999572e+00 5.373293000000000319e+00 1.122333300000000023e+01 5.691552999999999862e+00 4.268423000000000300e+00 6.420622999999999969e+00 2.835412999999999961e+00 3.310693000000000108e+00 8.156933000000000433e+00 5.079523000000000010e+00 7.007642999999999844e+00 5.630132999999999832e+00 4.141842999999999719e+00 6.104842999999999797e+00 8.016132999999999953e+00 9.004533000000000342e+00 9.332129999999999592e-01 4.368872999999999784e+00 9.976832999999999174e+00 1.121393300000000082e+01 6.979330000000000256e-01 6.875342999999999982e+00 7.967332999999999998e+00 5.474393000000000065e+00 6.704692999999999792e+00 4.176072999999999702e+00 5.916192999999999813e+00 9.539832999999999785e+00 5.463630000000000431e-01 1.164403300000000030e+01 3.681602999999999959e+00 2.747222999999999971e+00 4.336242999999999626e+00 5.185362999999999722e+00 7.414972999999999814e+00 9.318533000000000399e+00 5.915123000000000353e+00 3.492773000000000128e+00 3.945572999999999997e+00 8.305633000000000266e+00 3.837003000000000164e+00 1.164623300000000050e+01 4.285853000000000357e+00 7.757330000000000059e-01 7.180742999999999654e+00 5.385233000000000381e+00 2.446413000000000171e+00 8.030632999999999910e+00 1.131233300000000064e+01 6.623729999999999896e-01 9.978733000000000075e+00 7.893303000000000402e+00 4.652713000000000321e+00 5.186613000000000362e+00 3.608673000000000020e+00 8.545332999999999402e+00 6.784442999999999557e+00 8.877033000000000840e+00 1.061553299999999922e+01 4.858902999999999750e+00 7.757403000000000048e+00 7.639072999999999780e+00 7.660973000000000255e+00 1.124103299999999983e+01 4.643032999999999966e+00 4.395773000000000152e+00 3.399163000000000157e+00 1.161723300000000059e+01 8.405732999999999677e+00 3.552273000000000014e+00 3.081182999999999783e+00 8.181133000000000877e+00 1.582043000000000088e+00 4.201373000000000246e+00 1.655872999999999928e+00 6.192562999999999818e+00 1.015223300000000073e+01 1.068103299999999933e+01 1.013523299999999949e+01 8.504032999999999731e+00 9.866832999999999743e+00 1.034293300000000038e+01 4.580763000000000140e+00 2.070873000000000186e+00 5.967253000000000362e+00 6.691803000000000168e+00 7.675652999999999615e+00 1.227063000000000015e+00 2.303023000000000042e+00 7.387612999999999985e+00 5.571272999999999698e+00 1.094163299999999950e+01 3.394473000000000074e+00 4.172863000000000433e+00 9.403733000000000786e+00 2.189413000000000054e+00 2.792243000000000031e+00 3.695593000000000128e+00 2.550962999999999870e+00 3.348829999999999862e-01 7.566563000000000372e+00 4.601932999999999829e+00 6.611513000000000417e+00 2.120133000000000045e+00 1.833029999999999937e-01 7.596953000000000067e+00 3.567842999999999876e+00 6.826213000000000086e+00 1.096383299999999927e+01 1.037073299999999954e+01 1.022783300000000040e+01 1.681953000000000031e+00 5.772083000000000297e+00 1.067530000000000007e-01 9.223632999999999527e+00 4.754163000000000139e+00 1.104783300000000068e+01 9.870433000000000234e+00 2.827913000000000121e+00 5.234683000000000419e+00 5.554533000000000165e+00 1.036913299999999971e+01 8.455932999999999922e+00 7.029602999999999824e+00 7.978633000000000308e+00 4.825253000000000014e+00 1.154552999999999940e+00 1.013403300000000051e+01 2.762223000000000095e+00 1.768572999999999951e+00 6.029652999999999707e+00 1.047593299999999950e+01 1.087293299999999974e+01 5.805529999999999857e-01 1.089513299999999951e+01 3.327563000000000049e+00 9.283633000000000024e+00 4.766112999999999822e+00 2.223742999999999803e+00 6.590302999999999578e+00 6.826283000000000101e+00 8.529533000000000698e+00 7.358353000000000144e+00 1.558043000000000067e+00 2.496472999999999942e+00 8.860732999999999748e+00 5.741552999999999685e+00 1.172563300000000019e+01 3.536329999999999751e-01 1.811973000000000056e+00 8.946932999999999581e+00 3.426063000000000081e+00 6.951292999999999722e+00 1.112453299999999956e+01 7.995033000000000278e+00 5.037930000000000463e-01 8.909233000000000402e+00 6.985303000000000040e+00 1.061953300000000056e+01 8.910029999999999895e-01 8.161832999999999672e+00 9.925033000000000882e+00 3.239402999999999810e+00 1.117143300000000039e+01 1.114813299999999963e+01 4.055630000000000068e-01 2.102282999999999902e+00 9.911929999999999907e-01 4.235452999999999690e+00 4.765312999999999910e+00 1.248933000000000071e+00 1.088703300000000063e+01 3.153852999999999795e+00 1.945353000000000110e+00 7.992433000000000121e+00 1.168283300000000047e+01 7.641973000000000127e+00 5.118163000000000018e+00 4.762942999999999927e+00 7.379662999999999862e+00 1.575782999999999934e+00 1.080783300000000047e+01 8.200132999999999228e+00 1.478442999999999952e+00 7.474903000000000297e+00 6.224002999999999730e+00 6.114412999999999876e+00 6.752613000000000198e+00 1.153653300000000037e+01 2.254332999999999920e+00 1.063333000000000084e+00 3.066752999999999840e+00 5.959662999999999933e+00 3.909593000000000096e+00 6.731923000000000101e+00 5.278423000000000087e+00 8.569433000000000078e+00 5.430213000000000179e+00 4.506973000000000340e+00 1.196682999999999941e+00 1.092903300000000044e+01 6.158832999999999558e+00 1.743943000000000021e+00 8.755632999999999555e+00 7.479733000000000409e+00 1.028193300000000043e+01 2.267422999999999966e+00 9.719533000000000200e+00 1.059873000000000065e+00 7.101013000000000019e+00 3.390273000000000092e+00 7.391742999999999952e+00 2.798252999999999879e+00 6.589633000000000074e+00 8.482433000000000334e+00 3.491553000000000129e+00 4.266092999999999691e+00 5.318493000000000137e+00 3.585773000000000099e+00 1.035473299999999952e+01 7.362203000000000053e+00 4.926030000000000131e-01 8.901630000000000376e-01 6.232732999999999635e+00 1.053293299999999988e+01 8.228733000000000075e+00 9.086532999999999305e+00 6.131682999999999772e+00 7.223773000000000444e+00 5.636130000000000306e-01 6.648712999999999873e+00 7.354953000000000074e+00 9.026232999999999507e+00 5.373013000000000261e+00 9.966530000000000111e-01 2.497913000000000050e+00 9.549633000000000038e+00 1.660172999999999899e+00 1.222323000000000048e+00 1.167643299999999940e+01 6.896532999999999802e+00 1.099183299999999974e+01 1.412703000000000042e+00 1.500812999999999953e+00 2.294782999999999795e+00 3.440433000000000074e+00 8.339229999999999698e-01 2.841113000000000000e+00