-7.761119047471864906e+04
-7.786393472807494982e+04
-7.786551098547221045e+04
-7.761465990214413614e+04
-7.786703102092139306e+04
-7.786271468428292428e+04
-7.786451934312227240e+04
-7.786574744686267513e+04
-7.761361623258581676e+04
-7.786110083981169737e+04
-7.786397117089954554e+04
-7.761726664401857124e+04
-7.786160150099653401e+04
-7.761195012333933846e+04
-7.761168746408692095e+04
-7.761369673503187369e+04
-7.786433955550486280e+04
-7.761209139103704365e+04
-7.786305680018254498e+04
-7.786645103747963731e+04
-7.786192538321248139e+04
-7.786173154070493183e+04
-7.786813049460864568e+04
-7.786325648628812633e+04
-7.786131047871011833e+04
-7.761708594510055264e+04
-7.786352083863521693e+04
-7.786505969128773722e+04
-7.786287633517709037e+04
-7.786560850002903317e+04
-7.786397542623085610e+04
-7.786233375450214953e+04
-7.786345397650091036e+04
-7.786521780883050815e+04
-7.786679537873964000e+04
-7.786427293975699286e+04
-7.786405928382959974e+04
-7.786236833281819418e+04
-7.786432008481207595e+04
-7.786221297410358966e+04
-7.786249621831494733e+04
-7.786571067542390665e+04
-7.761322695659384772e+04
-7.786177859611045278e+04
-7.786530027541876188e+04
-7.786531410548092390e+04
-7.786194381971645635e+04
-7.786364810397311521e+04
-7.786444208403400262e+04
-7.761515433135131025e+04
-7.786701419489794353e+04
-7.761389472931232012e+04
-7.786174289615616726e+04
-7.786166894287175091e+04
-7.761184592428871838e+04
-7.760917993130303512e+04
-7.762520121118842508e+04
-7.761360253412260499e+04
-7.786280452559793775e+04
-7.786465584694241988e+04
-7.786257339309598319e+04
-7.786278448574693175e+04
