-1.252750064285675258e+00 6.083436270719265460e-02 -2.607447976887890206e+00 1.229940263594526684e+00 2.502495022948034276e+00 -4.322153326553886954e-01 3.112734581647812693e+00 -7.128528085694619820e-01 -9.324517761684615325e-01 -2.816791841570086330e+00 2.574809362219316888e+00 -3.752974288733954555e+00 2.237326847592864265e+00 -6.695192266188921160e+00 3.360389429261895877e+00 -2.825429720464759153e+00 5.565245812346834020e-01 -4.278363322332397800e+00 1.449213729506401149e+00 -1.318506547291701914e+00 3.022098559734715639e+00 3.701879265606778713e+00 4.822275098856487752e+00 -2.777089891712964054e+00 2.405129909284984713e+00 4.657080164426765201e+00 8.621907200515087633e-01 -3.873317867469475040e+00 -4.128105984283873653e+00 -1.918500259046822309e+00 4.253146454662682707e+00 -3.690746902218828840e+00 -1.721084771357110244e+00 5.253671792197653012e+00 -2.685149806168667386e+00 -3.500239969294560272e+00 1.281103678071446594e-01 2.248274091537898922e+00 -1.582031273370328561e+00 -2.263559301095237064e+00 4.850074382754864466e+00 1.653152620676160200e+00 -7.457279647484266194e-01 5.798379582326277593e+00 -1.609705601644737527e+00 3.543838683425037939e+00 -3.621227866535559503e+00 -2.567294027057651640e+00 -3.684827193810953805e+00 2.108913089587609146e+00 -8.922685157597612937e-01 -5.763020226067531171e-01 -2.763411107543586986e+00 -1.434357379991815673e+00 -4.777764671469655333e+00 -9.926906713342782407e-01 -4.092312111554953225e-01 4.361846534659538754e+00 -8.193859626428654508e-01 2.154829910519919345e+00 1.066027281306990204e+00 -1.512919500461471778e-01 -1.593218658370478158e+00 8.447209468015739020e+00 4.260462272202539813e-01 1.745406380832062787e+00 -1.820517052132707869e+00 -3.342981516759135019e+00 -3.675192241027914974e+00 6.725811022047024634e-01 1.001649938150678487e+00 -1.950881249157339903e-01 -4.509550767057862175e-01 -2.490108475334336546e+00 2.021848844481417107e+00 7.103722080344040402e-01 -7.923538959912356239e-01 -3.197294057847232640e+00 -1.498313576415496229e+00 -5.129803230736630582e+00 1.831217984374531316e+00 -5.025900315414641994e-01 5.983211061663182839e+00 -1.382308991733627979e+00 -1.694936650045398618e+00 4.993699816760966748e+00 1.359460110271197397e+00 -8.521263930050422264e-01 -2.050710508293854595e+00 1.234407298596195135e+00 -1.241441323206281755e+00 3.297982065510602467e+00 4.259486281361838600e+00 -1.079099799300821561e+00 7.293047848378376719e-01 -1.338984871443474001e+00 -4.115883473065426124e+00 -2.488748361649587792e+00 -4.468190969745303498e+00 6.076428471363592543e+00 2.882052615845640681e-02 2.904365679364967701e+00 -2.334743383323389931e+00 -8.281683375471471376e-01 -1.296527727210970538e+00 1.042880666073871254e-01 -2.147882274983193174e+00 -3.683245965236056740e+00 2.138914266415322007e+00 -4.331397471624105933e+00 7.080166659674484109e+00 -2.811010972744397485e+00 5.729081661533155234e+00 2.330359137850357865e+00 6.528898442177229811e+00 -3.773221213582083511e+00 2.568943646982292162e+00 -1.456734721095488405e+00 2.986173560733729637e+00 8.764253767703054088e-01 -3.392346701536407938e+00 -2.777678674385568147e+00 5.710939956127507600e-01 -3.083701168130004167e+00 3.513664728450605068e-01 3.453479826455638335e+00 1.342928429798233569e-01 2.593652978846016310e+00 4.474294769154743001e+00 -4.258981316659221084e-01 3.657353411599702397e+00 -2.151878283846778483e+00 5.187663855281667846e-01 4.618794892528617524e+00 -3.965489866538089991e-01 -3.304584144753887731e+00 -5.290452454401445515e+00 -1.921756304359423684e+00 6.671457896724547476e-01 -1.014346560831258237e-01 3.055936337016836868e-01 -8.849840656810648021e-01 -4.720276342693146887e+00 1.928580012713532410e+00 1.774923676004823481e+00 -2.815831791570302833e+00 3.772665855253339195e+00 -3.612145700977890783e+00 -4.324902864501846800e+00 5.498777647926934575e-01 -2.302139221440025363e+00 4.309594000793468993e+00 2.142039699676533182e+00 -3.974874393852519810e-02 3.848765372911553850e+00 4.638305967591159984e+00 -2.071770930249458686e+00 6.728253570252149540e-01 -1.248983912063709178e+00 9.986936834914644789e-02 -4.071339107114058997e+00 -3.669966730530970001e+00 9.284213145196669181e-01 -2.890938349105550143e-01 3.976339922775595226e-01 1.858480936109129789e-01 2.591650603538488085e+00 -4.015010345959142413e+00 2.835762470703452109e+00 -4.561730281588113556e+00 3.349184560758804441e+00 1.428712265424264771e+00 -1.275040502095313055e+00 -1.467880968441656719e+00 -3.630903956972578950e+00 1.347321417022735668e+00 -4.648133238906560494e-01 2.634892448520679831e-01 -2.603027221746950559e+00 3.786594550670651316e+00 -4.299302902429432471e+00 2.897390790132479133e+00 2.880858081218165889e+00 2.424816333597621387e+00 -1.073749333179909948e+00 3.189394085620844699e+00 2.239241291165007919e+00 1.221587777174346912e-01 1.774391457606443456e+00 1.841494170339000203e+00 -7.515674547310382536e-01 2.471797077106017149e+00 -1.390911389401742637e+00 -5.003771857117554234e+00 7.602536703691391562e-01 3.412867191783510723e-01 -4.583434507828521909e+00 -1.560731738800959501e-01 -2.612994361085887007e+00 1.282249875955493890e+00 -1.372642671489428423e+00 -2.354099163742153333e+00 1.891249648608418488e+00 -5.133882543349527872e+00 -2.088428594787739900e+00 -5.842163930120344156e-02 -3.146858779845777221e+00 -7.136030565339415155e-01 3.202064997267686230e+00 -2.833917446922401773e+00 1.100829222354292813e+00 -5.309434396389655753e+00 -2.430415682525118637e+00 -5.846927156230676381e+00 -9.811896117225231695e-01 -5.330045389475516870e+00 -1.749428100729386371e+00 4.312405759443074693e+00 1.019088703893925141e+00 -6.608949231500326205e-01 2.997038529370802618e+00 -5.303908581018650814e+00 -1.492313649582358348e+00 -2.682277883700114399e-02 -1.245422933890973471e+00 1.559139197371217644e+00 3.399492312032918573e+00 4.808333547922306606e-01 -2.774649914611212687e+00 -2.704433595692964154e+00 7.130852363144549177e-02 -4.429957119914630148e+00 4.692707943877739041e+00 3.569766204067275961e+00 2.889709361692865408e-01 2.744427108672676585e+00 3.510723900411633736e+00 2.642239119301022399e+00 2.184717444578509582e+00 1.662492925012559963e+00 -2.033254259047666268e-01 2.142426907844629635e+00 -2.756483526613175972e+00 -4.290079840406878731e+00 -2.483806700965113023e+00 -1.023177786699642544e+00 -3.356756460194693759e+00 6.038657934360881496e-01 2.232801191434272692e+00 -3.253760630142986443e+00 1.128477839594963644e-01 5.023000110808976126e-01 6.259957943951997006e-01 -2.140073319816238495e+00 -1.795272930767229658e-01 -3.331535478759579672e+00 1.268500129332999216e-01 5.061171739938003178e+00 -1.561806974231889633e+00 6.004079165086426251e+00 2.690322866156785508e+00 2.619296135455110308e-01 -2.321725886941757633e+00 -4.826514334099235803e+00 1.853189605365815895e+00 4.032878485965815663e-01 1.307785046222887937e+00 -1.669037925760946894e+00 9.382455005110190704e-01 -5.550143151129036667e-01 1.714286259816065083e+00 3.772106897379871260e+00 9.482332086769458546e-02 2.463775234579709927e+00 1.828240132446977251e+00 3.960676761022305925e-01 -3.255022013458180319e-01 -5.359207872382690946e-02 3.395263361203664676e+00 -3.589476796751627230e+00 9.438875297545216148e-01 1.785275966629157329e+00 -1.024630974326523392e+00 6.473426372666469808e-01 5.548060557396246040e-01 4.091618427864697871e+00 8.107671099131583681e-01 5.804759518238065574e+00 -3.222352031328445943e+00 4.854006628254778355e-01 4.328990918866214344e+00 1.572718222729691195e+00 -1.989113556325987853e+00 2.348917876223238999e+00 5.781059087338226155e-01 -5.072601837096640809e-01 -3.320338323566610073e-01 -9.842795637571755130e-01 -7.124326388561128987e+00 7.076103287902504313e-01 -1.019721709544558541e+00 2.293203608774664115e+00 8.255473547678788826e-01 1.314269368931652471e+00 -1.308269442098514812e+00 -7.043526893935578848e+00 5.346307618314905419e+00 -6.265833429381842734e+00 -8.516245136264732896e-01 4.940246577619324952e-01 -4.435248964878619304e+00 3.744124036700604119e+00 -1.258376666908934682e+00 3.972745520259000074e+00 -3.201090549089010029e+00 1.750275022180721285e+00 -4.175354122543147639e+00 -8.304231952059839550e-01 -1.042854955040133230e-01 -4.446105705984896517e+00 -4.953359204825789064e-01 -1.449919240272176335e+00 -1.195717335027007389e+00 -4.215857228211549845e+00 9.251189893463371838e-01 -5.793012146923097738e+00 2.869543169490675005e+00 3.476044343884924781e-01 1.978363258899387578e+00 4.110328861336633999e+00 -2.514387918713958836e+00 6.788916183253971282e-01 -6.692946150281556150e+00 -4.045343195122076407e-01 3.082968403668466362e+00 2.846583730583170269e+00 3.233230369703063101e+00 -5.706779910868674532e-01 7.476172629295742666e+00 7.654108409384073219e+00 2.084555998886097328e+00 -3.911420076807408108e+00 6.185244251012269601e+00 2.480877700001661523e+00 -1.873231870385388520e+00 3.527255066663923078e+00 1.937837013300619970e+00 5.640653703197492597e+00 6.032161784576596908e+00 -3.428517498019930443e+00 4.627034764621024143e-01 -2.960503664649547950e+00 -2.378940650319291805e+00 -1.469596922833341868e+00 5.952588192039681481e+00 2.355475218267820137e-01 -2.904366193585642630e+00 -4.093659369722832508e+00 -3.826240450474224453e+00 -5.195164278043765016e+00 -3.066006834711400675e+00 -1.704568003283714495e+00 5.585362125143572776e+00 -1.164173496175004763e+00 -4.812243167712531466e+00 5.348141329241110853e+00 3.884944396925873011e+00 -5.659842876117632038e+00 1.107315601945756400e+00 3.566262818610114405e+00 -1.275376288195933627e+00 -3.727208747604267014e+00 -6.800079914103082102e-01 3.575572269706028372e+00 5.733941046909668549e-01 -4.652360132853114449e-01 6.115245961660121132e+00 3.112351487245113901e+00 3.310877691592315042e+00 3.761070179037427685e+00 4.422092628914801260e+00 1.030889039938392149e-01 6.307574778435074414e-01 4.322894832766896123e+00 4.001795388838401024e+00 -3.383350925052099445e+00 -3.044386426440979676e+00 -2.981661788533357171e+00 -4.846325199815165519e+00 -3.656571281953387320e+00 2.353319605199212461e+00 -4.781129217344631144e+00 -3.927695161163665460e+00 3.613397828320938920e-01 6.123535198937304358e+00 1.835752896505268517e+00 -4.299134238048109680e+00 -6.169294154122463070e+00 3.840012822806408099e+00 4.929709167552076110e+00 3.099542250236761443e-01 4.925553236058639150e+00 2.569323656060942263e+00 2.373065164889446965e+00 4.311510501248312366e+00 -8.000639665224335673e+00 1.541826929913963307e+00 4.075625650658885601e-01 -1.186411997696491305e+00 4.282388641774445004e-01 1.237763102719700026e+00 -2.014293914327795587e+00 3.910098015452592612e+00 2.790556302743664396e+00 -2.279231718820671770e-01 6.402229434921447471e+00 2.084677354965341678e+00 1.742344196713847770e+00 -2.901675276794606906e-01 4.954803136480522952e+00 1.283400187604939457e+00 1.857599561872585570e+00 -6.333885393480012560e+00 3.264953157349883561e+00 4.784590950927137598e+00 -4.043939886900647984e+00 2.807732301722106971e+00 -3.574267177633478898e+00 -3.682756941374356607e+00 2.044283264079989060e+00 -6.437154274710017887e+00 1.713289185927699299e+00 1.557211384061530479e+00 2.982289137756568120e+00 -7.093206267545130173e-01 -2.681963180647159550e+00 5.377299698382887350e+00 -4.254495769713260600e+00 5.891785711014324356e+00 4.382435416256384442e-01 1.662051723673612980e+00 -7.664404135734183221e+00 1.553952253424880636e+00 -3.876375423601617687e+00 9.597003297241667452e-01 -5.942493525973403523e-01 5.611019165710885659e+00 -1.219730412097102201e+00 9.435805400116878960e-01 4.262231191323724744e+00 -2.172329868523462881e+00 -6.179466467510629890e+00 4.161860457816684011e+00 3.541358082889979997e+00 -6.612084949175033088e+00 -2.382526311084415926e+00 1.151910875743925311e-01 -5.876420797252397854e+00 3.542754192021962956e-01 1.542245505543220485e+00 -2.490913230690341429e+00 -6.265536724052504169e+00 -5.516141851672340835e+00 -2.148244286338226505e+00 -5.916098578737806202e-01 1.974274176093669952e+00 -3.687970110575106819e+00 -3.566428911888062658e-01 9.073706627568834948e-01 4.430617893481700875e+00 -5.187494676679670569e+00 -4.962719049547828831e+00 7.813182060901413539e-01 2.493242136126344377e+00 1.449484209581326510e+00 1.385480704855567957e+00 6.400458973138237084e+00 2.926636062568289898e+00 -3.738419272534780902e+00 2.463766492828238786e+00 -4.972354516551543147e-01 4.465507766264388501e+00 -4.419382171738123866e+00 -1.116106718601509007e+00 -1.250172790263761824e+00 4.350244173574854045e+00 4.815362944546319746e+00 -5.742016368386151370e+00 4.728871027051139708e-01 1.188106869040511243e-01 -3.653787291220219391e+00 2.783450287239111365e+00 5.131061014507102058e+00 2.403076111909979939e+00 3.241120057515955555e+00 4.630335547132329310e+00 6.339317620688211807e-01 5.427993629383748520e+00 5.198966425712964190e-01 2.214162234636129156e+00 3.372475157780856492e-01 -4.873804124233164781e-01 -1.868773062914516503e+00 -6.066121946379311680e+00 3.729502686034385839e+00 3.589818753500344517e+00 -2.002097628363760151e+00 6.066528694933049914e-01 1.059424173622354859e+00 4.308843238608315751e+00 6.052514124663051831e+00 3.878494012781642519e-01 -1.740771709890421404e+00 -6.118614107079819453e-01 -1.652303642342126011e+00 -2.683771694760301862e+00 -4.029474345098882360e+00 1.595045170207237240e+00 -1.782617959961306120e+00 1.990230957852248794e+00 -2.178617244713793255e+00 -6.614890022955866478e+00 -2.692119038973733502e+00 4.111066768004918437e+00 -5.162813112732383303e+00 -2.670664209760586161e+00 -4.294138584192785046e+00 -3.688568663440531470e+00 -2.104132379974335443e+00 -7.406048355878277256e+00 -1.198497726215452364e+00 1.239224003656702600e+00 2.541434383544482145e+00 3.174990250300050665e+00 -3.565356247560506731e+00 -1.943826141499588100e+00 -6.473566754910680565e+00 4.492540861357367632e+00 5.417264929225487080e+00 -1.040854122394629488e+00 4.144822784199752697e+00 4.293994602403851668e-01 1.685101151199201426e-03 5.651288815192946124e+00 3.595865474414885909e+00 -2.508348911109539170e+00 1.323081054414395830e+00 4.260979063980676607e+00 4.905471890267784296e+00 5.441758802626485370e+00 2.923966743045594008e-01 -6.667873778621448144e-01 -1.227193810970616195e+00 4.649414162607395262e+00 -5.078222269071802630e-01 3.616143252503499550e+00 3.885322863342498323e+00 2.988743635666196496e+00 -1.877573949763089445e+00 -4.290499958698160476e+00 -4.868923655808986339e+00 1.561773035667355369e+00 -5.162918013750035229e+00 -6.817393724222361451e-01 -5.973871271547458228e+00 1.814385999027505525e+00 -1.642313877293500202e+00 -4.025419200857699664e+00 -4.843941786987637776e+00 4.268009489046038496e+00 -7.337260541994522489e-01 -5.144009605318315081e+00 -5.411276829467869476e+00 2.649720515898153828e+00 -2.695813714521907656e+00 4.576493557160566716e+00 1.862441463746156600e+00 2.681766748349399876e+00 7.168208438283400596e+00 -3.809246485614647959e+00 4.677922556816270117e+00 -8.053312831602360555e-01 -3.445414275171976293e+00 2.096114651213426328e+00 -6.560402171816601680e+00 -2.510508123722869911e+00 -3.444974102274378946e+00 -2.670570621597779137e+00 3.014904098274102662e+00 3.449868968877450648e+00 -3.016624680651860846e+00 -5.276423485952554060e+00 1.263267933967282985e+00 -2.369775695232986534e-01 1.225237201303141843e+00 2.623322997559181413e+00 -4.902734179395346059e-01 -3.895829934389936078e+00 1.114659701622725319e+00 3.600803535554637058e+00 1.755478421188650939e+00 -3.248106773823964843e+00 2.807781152686209314e+00 3.539074428873356659e+00 -4.655925739011922637e+00 3.770170342318713175e+00 -5.609077982663654538e+00 1.124332706735696963e+00 2.102852998935524020e+00 4.707154973735212522e+00 2.709381941246211234e+00 1.598576837801511052e+00 -2.671825834264876409e+00 3.700437390834742324e+00 -4.319000639596913160e+00 -4.879719204654966447e+00 -1.783754387652533024e-01 4.012109627132802281e+00 -1.577845002857080903e-01 -2.751617970588566386e+00 5.599013655617188334e+00 4.785391078297068113e+00 -1.451046926211932098e+00 -1.886273535138734303e+00 -1.287876478578753314e+00 3.738388419294294884e+00 -3.820930093565944041e+00 -6.417620059717111580e+00 5.639972360803429709e-03 3.733332087399348076e+00 2.973146294159277225e+00 -7.490141948146361806e+00 -4.875874376669761645e+00 -4.553186505076922685e+00 -2.131809793572792822e-01 -4.687883011286434254e+00 -7.615248238771539224e-01 6.467523119320187641e-01 -1.324772840434367049e+00 -1.207016820134255264e+00 2.984667922598022827e+00 5.885787841063885750e+00 5.509942407217394589e+00 4.234797518325104981e+00 2.210813115381395466e+00 -7.466894545660988314e+00 2.102449335705834699e+00 -2.958281717113895759e+00 3.881739773680747518e+00 -4.715693608039656759e+00 1.884486618293932159e+00 2.715357699707635075e-01 -3.020552298165702254e+00 -1.937085736894791133e+00 3.144459940398006914e+00 7.521408107833993384e+00 2.637866700903510608e+00 1.185346532458382063e+00 1.937735197607016957e+00 2.715264111544827941e+00 -5.795136906751219286e+00 3.152761518971384902e+00 4.223364335842418882e+00 -2.441387094841867444e+00 2.351883901075273453e+00 -6.186893356716236525e+00 -1.742424415139110616e+00 1.161011039025210856e+00 2.580536752094829467e+00 7.056868349342310331e+00 8.617371774163675724e-01 1.176958050590968918e+00 4.913982756655791206e+00 2.070166047523522401e+00 5.030395632553421592e+00 -4.189698308265668025e+00 4.757572768233726102e+00 2.410713831592238954e+00 -2.092241541091109713e+00 -8.094972933788982417e+00 1.110520739411555713e+00 -3.488844324921132056e+00 -4.054830052350784086e+00 -4.550995410781755623e+00 -1.372178330220116926e+00 3.532354078874875736e+00 -1.558764844719990217e+00 9.807149860397168517e-01 4.578012565033818149e+00 -3.201329147482100179e+00 4.424565516139737920e-01 2.158117323293681000e+00 -4.948906568003013540e+00 3.321017094857297569e-01 4.869824570431171118e+00 -3.246545599855382935e+00 3.133979608825657071e+00 1.319092758860932024e+00 -4.523407985801382480e+00 -2.087218119319347309e+00 -1.178951684147026002e+00 -3.807102699621559339e+00 -8.923708456740391259e-01 6.536348471313200292e+00 1.052812324186249038e+00 -2.403112621577888630e-01 1.570207797395496874e+00 -2.335874154587194163e+00 -3.516713542831276129e+00 -5.004828580604192112e+00 1.212329748145909436e+00 4.069183494045451432e+00 -3.199667186261264895e+00 7.332545138406941776e-01 3.382402187907160851e+00 6.501883344807868337e-01 4.896454002294461816e+00 4.643160210760924222e+00 2.751515640674288221e+00 -5.568857184145696415e+00 3.871961867550123948e+00 -1.386239180350843592e+00 -5.995111670739229126e+00 -5.501753442971788921e+00 -4.030003992393889067e-01 -7.954608687302227921e+00 -2.406808839788086907e+00 1.582265757998020606e+00 1.811887400768830814e+00 5.481226782076589643e+00 7.034240582770028283e-01 3.111579642012294311e+00 -2.631354610278308748e+00 7.423924209195071455e+00 -2.603165032887787333e+00 2.414774118040169615e+00 -4.121414944863854402e+00 -4.500904146411717655e+00 -2.895473775456961635e-02 -8.322692474283841513e-01 -3.356420159873397591e+00 2.197194495030965200e+00 3.058558862458129468e-01 7.143262050688610643e+00 -1.635579643336800615e+00 4.911481073073068693e+00 9.492158843864184625e-01 -8.529869413042582948e+00 1.862813759514684975e+00 -3.302152909403607062e+00 -3.289070106996279996e+00 -3.077235357365530888e-01 -3.372844368225336620e+00 -6.206463567156375039e-01 6.816164222589002009e+00 1.101893144930377710e+00 1.615679817444137134e+00 -5.002359292923979517e+00 2.731617871664323793e+00 4.454048358527289864e+00 2.865813526936616951e-01 5.514690720928158818e+00 -3.789350773487382806e+00 -2.088819916721234460e+00 2.154110515795926162e+00 1.725195965651842300e+00 -4.002503984928225123e+00 -1.630508399042285284e+00 6.078808284646396443e-01 1.910246502996197693e+00 1.673572323671009277e-01 -2.604584281950134139e-01 -5.864654399772464721e+00 1.169268394620559093e+00 1.114025667530742281e+00 -4.375344313151398601e-01 1.439784979213941885e+00 -3.158621063560312248e+00 7.903592339938289024e-01 5.733747699935957343e+00 5.699099510870409446e+00 -1.327202018901948666e+00 -1.951081280999822809e+00 -6.063324071687925532e+00 7.357515694373446546e-01 -3.342793826212846486e+00 -4.833041851344679785e+00 2.261695765369895028e+00 -9.793975526709732815e-01 2.875347178246727697e-01 -5.548525927106906508e+00 -6.042901283369028320e+00 -4.792786085820839759e+00 -1.060752405625268402e+00 4.219530306491383609e-01