1.055741800000000019e+01 5.466078000000000436e+00 3.112679999999999891e-01 8.741438000000000486e+00 1.112271800000000077e+01 1.135701800000000006e+01 3.420837999999999823e+00 7.764497999999999678e+00 6.511887999999999899e+00 1.011611800000000017e+01 1.149001799999999918e+01 1.133397999999999906e+00 8.033087999999999340e+00 5.294938000000000144e+00 3.610579999999999901e-01 7.265800000000000036e-02 5.393697999999999659e+00 4.014677999999999969e+00 5.075928000000000218e+00 9.066480000000000095e-01 1.245381800000000005e+01 1.181081799999999937e+01 1.059091800000000028e+01 9.080717999999999179e+00 7.209897999999999918e+00 8.796618000000000492e+00 2.609497999999999873e+00 8.822117999999999682e+00 1.071181799999999917e+01 5.353087999999999624e+00 1.208311800000000069e+01 5.776898000000000089e+00 7.396767999999999788e+00 1.113681799999999988e+01 4.330718000000000067e+00 5.562237999999999793e+00 1.527000000000000059e-02 1.300101800000000019e+01 7.955288000000000359e+00 7.031778000000000084e+00 1.130781799999999926e+01 1.322941800000000079e+01 8.548828000000000316e+00 7.629018000000000299e+00 1.205861799999999917e+01 6.544247999999999621e+00 8.582487999999999673e+00 6.505067999999999628e+00 6.668628000000000000e+00 8.549998000000000431e+00 8.945318000000000325e+00 7.600938000000000194e+00 2.142608000000000068e+00 7.569857999999999976e+00 6.229707999999999579e+00 1.081981799999999971e+01 9.608117999999999270e+00 7.538878000000000412e+00 4.046818000000000026e+00 1.040181800000000045e+01 2.077447999999999961e+00 7.350567999999999991e+00 1.730007999999999990e+00 3.314827999999999886e+00 1.200581799999999966e+01 7.606028000000000233e+00 5.466480000000000228e-01 6.370458000000000176e+00 7.350527999999999729e+00 7.591097999999999679e+00 1.302851800000000004e+01 8.941080000000000139e-01 2.660817999999999905e+00 7.706488000000000227e+00 1.088991799999999976e+01 1.025331800000000015e+01 1.329598000000000058e+00 1.083141799999999932e+01 3.386417999999999928e+00 4.115698000000000079e+00 3.973037999999999847e+00 7.648877999999999844e+00 7.845328000000000301e+00 4.689280000000000115e-01 5.113888000000000211e+00 6.314957999999999849e+00 3.360247999999999902e+00 1.053081800000000001e+01 2.250987999999999989e+00 2.073618000000000183e+00 1.250321800000000039e+01 6.674648000000000359e+00 2.557608000000000104e+00 1.034831800000000079e+01 2.237999999999999972e-03 1.703578000000000037e+00 3.237979999999999747e-01 1.299111800000000017e+01 5.468478000000000172e+00 1.303001800000000010e+01 9.362118000000000606e+00 4.447837999999999958e+00 1.288141800000000003e+01 1.095451800000000020e+01 1.113221799999999995e+01 1.039681799999999967e+01 3.801288000000000000e+00 3.911668000000000145e+00 3.168179999999999885e-01 5.862078000000000344e+00 8.867779999999999552e-01 3.086280000000000134e-01 1.189807999999999977e+00 4.066997999999999891e+00 2.195527999999999924e+00 1.272071799999999975e+01 2.420480000000000131e-01 7.635787999999999798e+00 6.515057999999999794e+00 6.448158000000000278e+00 1.258911799999999914e+01 1.302711799999999975e+01 1.272801800000000050e+01 1.269711799999999968e+01 4.166858000000000395e+00 1.379663700000000048e+01 5.872800000000000242e-02 1.612448000000000103e+00 1.101001800000000053e+01 8.399558000000000746e+00 6.706178000000000416e+00 8.669048000000000087e+00 6.651087999999999667e+00 9.785018000000000882e+00 4.642687999999999704e+00 3.227127999999999997e+00 1.118921800000000033e+01 3.630497999999999781e+00 9.542018000000000555e+00 9.191318000000000765e+00 1.033161800000000063e+01 2.587079999999999935e-01 8.910907999999999163e+00 6.559338000000000335e+00 3.706388000000000016e+00 3.865057999999999883e+00 1.502607999999999944e+00 5.700537999999999883e+00 1.321061800000000019e+01 2.417317999999999856e+00 1.077631799999999984e+01 1.273371799999999965e+01 4.596627999999999936e+00 4.017278000000000127e+00 6.412408000000000108e+00 9.369517999999999347e+00 3.300379999999999980e-01 1.333191799999999994e+01 9.774317999999999174e+00 7.207280000000000353e-01 6.437779999999999614e-01 1.308731799999999978e+01 3.479547999999999863e+00 1.370181799999999939e+01 2.952548000000000172e+00 1.243131799999999920e+01 8.979080000000000394e-01 2.298238000000000003e+00 4.369947999999999944e+00 1.155091799999999935e+01 1.095617999999999981e+00 1.119911800000000035e+01 7.752957999999999572e+00 4.001558000000000170e+00 3.311758000000000202e+00 9.850718000000000529e+00 1.176321800000000017e+01 8.865567999999999671e+00 3.411080000000000223e-01 8.946118000000000237e+00 5.790058000000000149e+00 5.097197999999999674e+00 5.458897999999999584e+00 9.459018000000000370e+00 5.204918000000000156e+00 1.127841800000000028e+01 1.040111800000000031e+01 1.226901800000000087e+01 1.267841800000000063e+01 6.864679999999999671e-01 3.230678000000000161e+00 3.044087999999999905e+00 6.534947999999999979e+00 1.309501799999999960e+01 5.777598000000000233e+00 2.959248000000000101e+00 7.574457999999999913e+00 4.055317999999999756e+00 5.804068000000000005e+00 5.938697999999999588e+00 1.057691799999999915e+01 3.300857999999999848e+00 4.609779999999999989e-01 6.703587999999999880e+00 3.277088000000000001e+00 9.556117999999999668e+00 1.607318000000000024e+00 2.429968000000000128e+00 1.942987999999999937e+00 1.887528000000000095e+00 1.414457999999999993e+00 8.691148000000000096e+00 1.270671800000000040e+01 1.134441799999999922e+01 2.563257999999999814e+00 1.252361800000000081e+01 4.497188000000000407e+00 1.151971799999999924e+01 5.720938000000000301e+00 1.060041799999999945e+01 7.263577999999999868e+00 9.448517999999999972e+00 2.533079999999999776e-01 1.119111799999999945e+01 3.508097999999999939e+00 1.252080000000000137e-01 9.661918000000000006e+00 9.627817999999999543e+00 7.408687999999999718e+00 6.505258000000000429e+00 2.696228000000000069e+00 2.028357999999999883e+00 9.086318000000000339e+00 8.010887999999999565e+00 7.340417999999999665e+00 4.059878000000000320e+00 3.078748000000000040e+00 2.526747999999999994e+00 1.259361799999999931e+01 9.895917999999999992e+00 3.391668000000000127e+00 8.305179999999999785e-01 1.090901799999999966e+01 7.350197999999999787e+00 1.247611799999999960e+01 8.202548000000000172e+00 1.044111799999999945e+01 1.068391800000000025e+01 3.411227999999999927e+00 2.731997999999999927e+00 3.290687999999999835e+00 1.009571799999999975e+01 7.141858000000000040e+00 1.098907999999999996e+00 1.354711799999999933e+01 4.534588000000000285e+00 4.216237999999999708e+00 1.150851800000000047e+01 1.104061800000000027e+01 1.019417999999999935e+00 8.457278000000000517e+00 8.591008000000000422e+00 2.470479999999999898e-01 4.749577999999999633e+00 6.032148000000000287e+00 4.199328000000000394e+00 9.117880000000000429e-01 1.030911799999999978e+01 1.040211799999999975e+01 7.072777999999999565e+00 2.468279999999999919e-01 1.129461799999999982e+01 1.047347999999999946e+00 1.089431800000000017e+01 7.821708000000000105e+00 6.480178000000000438e+00 4.106817999999999635e+00 2.020128000000000146e+00 5.107788000000000217e+00 1.165341800000000028e+01 6.281098000000000070e+00 1.127151800000000037e+01 8.997818000000000538e+00 2.091028000000000109e+00 1.261951799999999935e+01 5.220367999999999675e+00 1.148701800000000084e+01 1.169181799999999960e+01 6.996480000000000476e-01 3.064328000000000163e+00 9.047717999999999705e+00 8.172878000000000753e+00 2.602008000000000099e+00 5.162728000000000428e+00 1.309091800000000028e+01 9.247218000000000160e+00 7.656999999999999917e-02 6.052208000000000254e+00 2.301137999999999906e+00 1.106571800000000039e+01 5.208607999999999905e+00 1.672028000000000070e+00 7.162067999999999657e+00 1.282811799999999991e+01 2.202717999999999954e+00 7.550667999999999935e+00 1.176441799999999915e+01 4.825780000000000070e-01 6.308247999999999855e+00 1.164221799999999973e+01 7.453027999999999764e+00 1.323781800000000075e+01 4.557348000000000177e+00 5.577607999999999677e+00 7.165898000000000323e+00 1.603447999999999984e+00 5.084518000000000093e+00 5.803458000000000006e+00 3.080928000000000111e+00 1.891588000000000047e+00 1.010681800000000052e+01 7.629897999999999847e+00 8.045467999999999620e+00 1.296071799999999996e+01 3.646608000000000072e+00 8.735447999999999880e+00 1.103141800000000039e+01 9.704717999999999734e+00 1.201637999999999984e+00 1.802318000000000087e+00 3.197878000000000220e+00 4.490248000000000239e+00 2.637518000000000029e+00 4.245137999999999856e+00 7.327677999999999692e+00 3.549458000000000002e+00 5.246477999999999753e+00 3.127597999999999878e+00 1.175561800000000012e+01 2.878048000000000162e+00 8.336558000000000135e+00 1.180738000000000065e+00 1.173271800000000020e+01 4.058968000000000131e+00 4.379057999999999673e+00 5.813617999999999952e+00 9.084517999999999205e+00 5.458038000000000167e+00 7.069957999999999743e+00 1.322611799999999960e+01 7.078978000000000215e+00 9.749617999999999896e+00 4.050778000000000212e+00 5.179318000000000310e+00 1.046791799999999917e+01 9.096918000000000504e+00 6.631467999999999918e+00 9.070918000000000703e+00 1.555768000000000040e+00 4.838428000000000395e+00 6.552328000000000152e+00 3.561917999999999918e+00 2.030197999999999947e+00 1.336521800000000049e+01 1.396179999999999921e-01 1.341781800000000047e+01 1.181121800000000022e+01 8.979317999999999245e+00 3.882157999999999998e+00 1.336841800000000013e+01 5.603087999999999624e+00 7.894978000000000051e+00 1.138631799999999927e+01 2.056788000000000061e+00 1.126861800000000002e+01 1.904098000000000068e+00 3.693598000000000159e+00 9.074317999999999884e+00 5.740307999999999744e+00 9.231580000000000341e-01 1.366981799999999936e+01 1.123761799999999944e+01 1.334431799999999946e+01 1.265981799999999957e+01 1.156791800000000059e+01 4.686507999999999896e+00 6.908180000000000431e-01 1.040521799999999963e+01 8.668298000000000059e+00 9.366918000000000077e+00 6.279417999999999722e+00 9.484818000000000637e+00 9.854217999999999478e+00 3.934187999999999796e+00 1.104321799999999953e+01 1.149671799999999955e+01 4.195158000000000165e+00 1.118281799999999926e+01 7.016347999999999807e+00 2.769308000000000103e+00 4.761618000000000350e+00 5.135977999999999710e+00 1.262127999999999917e+00 1.165681799999999946e+01 1.730780000000000096e-01 2.269147999999999943e+00 9.796317999999999415e+00 1.269151800000000030e+01 8.641887999999999792e+00 1.437578000000000022e+00 8.187808000000000419e+00 1.863348000000000004e+00 2.082279999999999964e-01 1.376261799999999980e+01 1.188821800000000017e+01 2.127488000000000046e+00 2.031467999999999829e+00 1.306921799999999934e+01 1.044061800000000062e+01 6.960880000000000400e-01 1.040279999999999955e-01 2.744387999999999828e+00 1.024781800000000054e+01 6.903158000000000349e+00 5.845708000000000126e+00 5.467048000000000130e+00 2.760387999999999842e+00 1.015841799999999928e+01 2.760067999999999966e+00 1.613658000000000037e+00 6.320357999999999699e+00 1.021527999999999992e+00 3.734227999999999881e+00 8.193580000000000307e-01 1.230101799999999912e+01 5.322237999999999580e+00 1.975057999999999980e+00 5.833548000000000400e+00 9.015218000000000842e+00 1.043151800000000051e+01 1.017721799999999988e+01 3.086979999999999724e-01 5.068077999999999861e+00 5.355648000000000408e+00 7.119547999999999988e+00 8.824657999999999447e+00 1.252947999999999951e+00 4.415388000000000090e+00 6.750898000000000287e+00 6.486807999999999907e+00 6.615628000000000064e+00 9.874418000000000362e+00 3.265087999999999990e+00 9.584317999999999671e+00 1.275111799999999995e+01 1.510458000000000078e+00 1.137861799999999945e+01 7.032747999999999777e+00 7.454667999999999850e+00 3.500118000000000062e+00 1.259211799999999926e+01 6.119480000000000475e-01 1.024301799999999929e+01 6.430780000000000385e-01 9.595917999999999282e+00 1.098781800000000075e+01 1.107691799999999915e+01 8.049528000000000461e+00 2.927198000000000189e+00 1.165641800000000039e+01 8.894398000000000692e+00 9.069217999999999336e+00 1.394727999999999968e+00 1.144651799999999930e+01 3.092277999999999860e+00 1.083968000000000043e+00 5.500918000000000418e+00 1.453480000000000050e-01 7.638247999999999927e+00 7.031147999999999954e+00 1.284831800000000079e+01 9.668718000000000146e+00 8.822238000000000469e+00 1.235201799999999928e+01 6.752337999999999951e+00 1.228471799999999980e+01 5.061537999999999649e+00 5.503957999999999906e+00 1.166991799999999913e+01 8.968279999999999585e-01 1.636838000000000015e+00 1.210801799999999950e+01 3.221827999999999914e+00 4.227877999999999581e+00 1.100201799999999963e+01 2.735138000000000069e+00 8.007478000000000762e+00 5.300498000000000154e+00 1.376198000000000032e+00 1.264271800000000034e+01 1.061521800000000049e+01 1.047051800000000021e+01 1.055421800000000054e+01 2.035968000000000000e+00 3.532027999999999945e+00 1.345481799999999950e+01 1.032531799999999933e+01 9.301017999999999120e+00 4.847897999999999818e+00 2.469979999999999953e-01 5.713237999999999595e+00 1.171091799999999949e+01 1.291671799999999948e+01 5.193687999999999860e+00 5.084177999999999642e+00 4.138577999999999868e+00 1.154771799999999971e+01 4.669698000000000349e+00 6.819778000000000340e+00 5.158368000000000286e+00 4.545308000000000348e+00 6.535698000000000008e+00 7.495998000000000161e+00 1.060411799999999971e+01 5.520707999999999949e+00 1.134471800000000030e+01 1.159311800000000048e+01 4.031897999999999982e+00 7.278978000000000392e+00 1.373561800000000055e+01 4.810398000000000174e+00 2.816797999999999913e+00 6.782788000000000039e+00 9.922017999999999560e+00 3.637279999999999958e-01 4.559047999999999767e+00 2.936758000000000202e+00 3.026079999999999881e-01 1.182321800000000067e+01 2.354108000000000089e+00 6.279518000000000377e+00 2.003337999999999841e+00 7.986848000000000170e+00 5.924978000000000300e+00 9.398579999999999712e-01 1.126221800000000073e+01 7.697867999999999711e+00 1.065251800000000060e+01 1.219941799999999965e+01 1.112821800000000039e+01 7.003578000000000081e+00 2.825858000000000203e+00 1.957718000000000069e+00 7.385898000000000074e+00 3.160318000000000183e+00 7.737318000000000140e+00 7.913327999999999918e+00 6.212337999999999916e+00 1.251611800000000052e+01 3.090638000000000218e+00 1.296941799999999922e+01 5.292577999999999783e+00 1.256031800000000054e+01 5.463767999999999958e+00 7.957597999999999949e+00 1.384021800000000013e+01 1.367161800000000049e+01 7.930227999999999611e+00 7.746138000000000190e+00 3.223008000000000095e+00 1.184401800000000016e+01 2.110748000000000069e+00 8.619218000000000046e+00 2.031080000000000108e-01 2.675327999999999928e+00 7.757028000000000034e+00 9.977517999999999887e+00 3.354928000000000132e+00 2.720817999999999959e+00 8.792800000000000615e-02 4.789468000000000281e+00 1.231479999999999936e-01 9.552018000000000342e+00 1.217721799999999988e+01 1.161031799999999947e+01 1.325141799999999925e+01 1.230471799999999938e+01 8.973017999999999716e+00 1.074181800000000031e+01 7.210618000000000194e+00 5.222847999999999935e+00 1.088241799999999948e+01 2.333979999999999944e-01 7.342757999999999896e+00 2.590927999999999898e+00 7.388379999999999947e-01 2.429298000000000179e+00 5.998158000000000101e+00 8.523898000000000863e+00 7.747478000000000087e+00 7.557318000000000424e+00 1.164301799999999965e+01 5.673580000000000290e-01 2.836917999999999829e+00 1.248031800000000047e+01 3.346528000000000169e+00 7.033987999999999907e+00 2.803828000000000209e+00 1.020541799999999988e+01 1.356621799999999922e+01 6.724879999999999747e-01 2.959007999999999861e+00 3.429717999999999822e+00 2.609858000000000011e+00 1.210758000000000001e+00 1.177531800000000040e+01 6.881268000000000384e+00 1.010391800000000018e+01 1.065181800000000045e+01 6.800408000000000008e+00 5.263799999999999729e-02 4.880780000000000118e-01 1.187351800000000068e+01 4.729338000000000264e+00 4.419480000000000075e-01 8.621007999999999782e+00 1.363031800000000082e+01 4.180877999999999872e+00 9.052580000000000071e-01 7.701807999999999765e+00 1.107579999999999953e-01 9.831618000000000634e+00 3.564347999999999850e+00 7.725628000000000384e+00 2.288987999999999801e+00 1.312561799999999934e+01 4.892257999999999996e+00 1.438280000000000114e-01 3.208108000000000182e+00 1.084931800000000024e+01 5.127568000000000126e+00 1.135191799999999951e+01 2.641417999999999822e+00 1.305481799999999915e+01 6.856128000000000000e+00 4.234297999999999895e+00 1.019771800000000006e+01 9.107979999999999965e-01 7.940757999999999761e+00 2.891808000000000156e+00 6.505428000000000210e+00 1.624457999999999958e+00 7.582008000000000081e+00 1.181721800000000044e+01 4.641078000000000259e+00 4.420568000000000275e+00 6.722479999999999567e-01 1.016041799999999995e+01 2.496528000000000080e+00 1.326731799999999950e+01 1.342431799999999953e+01 1.288621799999999951e+01 6.639967999999999648e+00 7.369997999999999827e+00 3.232488000000000028e+00 4.199607999999999564e+00 3.940577999999999914e+00 1.073041800000000023e+01 4.712807999999999886e+00 9.410218000000000416e+00 8.453737999999999531e+00 1.144191799999999937e+01 1.303571799999999925e+01 1.176641799999999982e+01 1.223101800000000061e+01 1.375458000000000069e+00 9.134118000000000848e+00 9.249617999999999896e+00 1.166091800000000056e+01 1.368141800000000075e+01 5.127547999999999995e+00 8.427179999999999671e-01 3.146880000000000233e-01 4.983527999999999736e+00 8.665479999999999849e-01 7.976999999999999369e-02 8.568177999999999628e+00 9.552118000000000109e+00 6.371497999999999884e+00 9.277817999999999898e+00 1.287107999999999919e+00 9.741018000000000399e+00 6.896148000000000167e+00 1.703800000000000106e-02 1.005661800000000028e+01 1.096161799999999964e+01 9.371518000000000015e+00 1.011611800000000017e+01 4.199527999999999928e+00 5.254527999999999643e+00 1.197761799999999965e+01 2.092728000000000144e+00 5.257098000000000049e+00 6.887768000000000335e+00 9.744317999999999813e+00 3.014628000000000085e+00 8.252088000000000534e+00 7.715328000000000408e+00 3.957479999999999887e-01 2.560067999999999788e+00 4.208467999999999876e+00 8.285778000000000532e+00 1.305431800000000031e+01 9.111518000000000228e+00 4.110648000000000302e+00 5.344867999999999952e+00 8.493228000000000222e+00 8.820508000000000237e+00 4.073368000000000322e+00 1.079131800000000041e+01 1.802017999999999898e+00 5.723688000000000109e+00 7.044827999999999868e+00 1.311671800000000054e+01 6.799447999999999936e+00 1.342448000000000086e+00 1.260241800000000012e+01 1.574588000000000099e+00 6.351758000000000237e+00 6.952378000000000391e+00 1.355881800000000048e+01 1.944477999999999929e+00 1.189061799999999991e+01 8.777257999999999782e+00 1.343121799999999944e+01 1.306991799999999948e+01 9.383518000000000470e+00 5.798668000000000156e+00 9.485818000000000083e+00 1.126091800000000021e+01 6.474688000000000443e+00 7.955788000000000082e+00 6.559908000000000072e+00 9.530279999999999863e-01 6.034238000000000213e+00 6.427608000000000210e+00 2.322147999999999879e+00 1.322751799999999989e+01 6.540067999999999770e+00 3.692387999999999781e+00 1.240467999999999904e+00 2.629728000000000065e+00 1.918857999999999953e+00 6.869048000000000265e+00 4.703047999999999895e+00 1.376551800000000014e+01 3.898477999999999888e+00 2.867647999999999975e+00 4.066378000000000270e+00 1.169081800000000015e+01 1.093771800000000027e+01 1.047891800000000018e+01 9.418317999999999302e+00 1.300891799999999954e+01 4.439117999999999675e+00 8.071158000000000499e+00 5.939028000000000418e+00 7.542188000000000336e+00 7.689377999999999602e+00 7.695088000000000150e+00 9.321118000000000237e+00 7.981288000000000160e+00 5.262538000000000160e+00 3.029577999999999882e+00 1.167271799999999971e+01 1.366221799999999931e+01 1.862247999999999903e+00 8.680958000000000396e+00 6.247977999999999810e+00 1.180141799999999996e+01 1.341651799999999994e+01 4.110880000000000090e-01 1.055801800000000057e+01 6.692978000000000094e+00 1.127011800000000008e+01 8.411628000000000327e+00 5.974957999999999991e+00 1.183001800000000081e+01 1.056621799999999922e+01 6.812687999999999633e+00 5.173557999999999879e+00 1.008821799999999946e+01 1.031381799999999949e+01 1.121961800000000054e+01 1.362161799999999978e+01