-7.790261191885825247e+04
-7.790667928418601514e+04
-7.791102248235442676e+04
-7.791147595370076306e+04
-7.790829495087068062e+04
-7.790764103750851064e+04
-7.790888407162298972e+04
-7.790870805310053402e+04
-7.790905962795701635e+04
-7.790584099539065210e+04
-7.790333516758418409e+04
-7.790681594452256104e+04
-7.790425634059548611e+04
-7.790558052665377909e+04
-7.790408240371817374e+04
-7.790691875714932394e+04
-7.790564001308777370e+04
-7.790178461850245367e+04
-7.790656206604088948e+04
-7.790940485575061757e+04
-7.790319425318861613e+04
-7.790528033801446145e+04
-7.790305019234100473e+04
-7.790311848673077475e+04
-7.790979082591734186e+04
-7.790949392072811315e+04
-7.790565359474216530e+04
-7.790941701510384155e+04
-7.790425809457144351e+04
-7.790734752808850317e+04
-7.790357418283380684e+04
-7.790287750012733159e+04
-7.790379466652453993e+04
-7.791068603151329444e+04
-7.790622110425772553e+04
