-1.897602330824443850e+00 1.864924121163913373e-02 9.491073838240433880e-02 -1.383397596902101956e+00 -9.958371876431545422e-01 1.015092180809664901e+00 -8.747305054262854984e-02 -1.647931738165288928e+00 -1.633675998398827156e+00 4.917641436756732265e-01 -3.150388390557352647e-01 -1.289354863018697728e+00 3.083688826833810293e-01 2.217232132064465289e-01 -1.008895821678767568e+00 -7.247678158244014179e-01 -6.920767506470019148e-01 -3.111487596511511855e-01 2.870122696191133166e-02 -5.079111870839143617e-01 9.533085667368591809e-02 5.341559818824815897e-01 1.915040068126340478e-01 3.691950178597774856e-01 4.378023402866915159e-01 1.250060175935988616e-01 7.159196206737499235e-01 1.029572635010998383e+00 -4.652869211321130072e-01 -7.092980010448235451e-01 7.644887918464894350e-01 7.479864219519869462e-01 4.676682770769416408e-02 -2.104005367467668641e+00 1.242459994362987707e-01 1.469332099185838736e+00 -4.562736611448625634e-01 -1.466300254087434668e-02 -7.461311137574411223e-01 -1.156245756032179411e-01 9.254275217511953588e-02 -1.656122245072917831e+00 4.590669078501766198e-01 -1.918860727739831740e+00 -1.938498815309040446e-01 2.478595074426387379e-01 -1.118204738954543087e+00 2.587805261332608575e-01 -9.999992897846885498e-01 -5.577952205220234605e-01 1.530912081871438069e-01 -1.085587721554309493e+00 -7.046329910833711851e-01 -3.267990658875709609e-01 1.913955062502590287e-01 1.267726227217480517e+00 1.314522879724310922e+00 -1.234803762736437660e+00 1.577988984646014614e-01 -2.321994310133984329e-01 1.562905863813858653e+00 1.318913295845439482e+00 2.373646234251929332e+00 -2.096090482841712621e+00 8.713577320205132537e-01 1.361713939488684799e+00 1.200607573644006110e-01 -3.344136456394653512e-01 -3.758336067709711764e-02 4.034698827154478140e-01 -1.930306251518712157e+00 -9.549797839298396207e-01 5.237291292603069026e-01 1.301341861168104241e+00 1.846209059705904654e+00 1.725129631184797674e+00 1.503776656864181049e+00 8.413678680476452953e-01 -3.697791725463085433e-01 1.245175079525737916e+00 8.054855493626650320e-02 -1.045379778553220840e+00 -9.672655442912836410e-01 -8.761296998823163706e-01 5.325716679835360567e-01 -4.667159403872800927e-01 -2.587645852923431966e-01 -3.327984785000339674e-01 6.599636695080364213e-01 8.028059454264736550e-01 -1.737396879601950550e+00 1.434799095551437365e+00 -1.002715403388787951e+00 -3.567251664967683866e-01 -9.153128010786019952e-02 -2.237286738380232509e-01 3.209549479188865129e-01 -3.551187411088079782e-01 -1.185620097857356114e+00 -7.351437605997744873e-01 4.894280391502237593e-01 -1.899099227208679574e-01 -1.315270042364741876e+00 9.528447396882226972e-01 2.037520233765502287e+00 5.153951547844187742e-01 4.059895640217877077e-01 1.016811734746073226e+00 3.919276854497116269e-01 2.507957589176044166e+00 8.540074122333261020e-01 8.623928087766906669e-01 -8.527254600911413629e-01 1.296404828469702286e+00 -1.262372675772520214e+00 2.150409155378979753e-01 -1.640034851262949511e-01 -1.619088072076467988e+00 1.349434349775338271e+00 -2.712212211840108189e+00 9.858093702645964740e-01 -6.398057048366417865e-01 -7.235084893919061511e-01 -7.765878901029941161e-01 1.172883365964144886e+00 1.057505102064138391e+00 1.202394490488808199e+00 -6.664181674176647974e-01 -9.505580003475504469e-01 -1.153711676546946174e+00 -6.311493139976771805e-02 -9.322666567255465109e-02 4.881959664134909449e-01 1.477029468466369844e+00 2.580457047890241107e-01 2.824922698879443056e-02 -6.480738590661603293e-01 -1.054215118187003197e+00 8.513740881578634179e-01 1.297425042288432306e-01 -1.463384108640852332e+00 6.438850174495387435e-01 1.127362494951402061e+00 3.397193745616726157e-01 7.359634283553471157e-01 7.149534000258699340e-01 6.983790392369003674e-01 4.302263270854044808e-01 2.937598733133567896e-01 2.712205526971336184e-02 9.670948230272622403e-01 7.366283156878159488e-01 -8.487777879709838824e-02 -1.266109003195349914e+00 -2.463137600943003658e-01 -4.911218820528939072e-02 2.885976119594084177e-01 -9.465810176489314332e-01 1.783620176056419648e+00 2.592324746843102545e+00 1.787467060924323448e-01 -3.816206462447568892e-01 1.150471057854588336e-01 -1.365165902878370474e+00 1.238683043506851655e+00 1.417500712052401253e-02 -6.664963289602288121e-01 -5.359331285344633988e-01 -4.143677614757055316e-01 1.526410079863885771e+00 4.534655020399804282e-01 -9.599265868210624664e-01 -8.712893406707699073e-01 9.371147292472147283e-01 -9.495208172465530172e-01 -4.481705717519431920e-01 4.880278162528433605e-01 5.187365607290306269e-01 2.722245171425413890e+00 -4.987004663575548835e-01 -3.622874915356825709e-01 1.468825077600522111e-01 -2.384992513440580719e+00 2.633046396298279745e-01 9.077018208714309200e-01 -4.227922387903519479e-03 -1.591035277385433266e+00 -1.481602947147714344e+00 -3.915363635162167899e-01 -1.038782327296008112e-01 -6.424570266357211290e-01 -5.637046445164026753e-01 1.404614341942834188e-01 9.085765102392033554e-02 5.559712797886381397e-01 1.150935913344574013e+00 -5.205430179594738860e-01 -1.559024011940070675e+00 -1.011519889782084292e+00 -1.077311854014669779e+00 3.743588218757501473e-01 -9.647042111102879236e-01 -1.856381887314746404e+00 4.725970822445474950e-01 -4.573308988521758156e-01 4.941737817576138392e-01 1.500522154213604242e+00 4.724911527855462645e-01 8.394806781712641497e-01 -1.101335729718934342e+00 1.387813209836293860e+00 -3.360812632877225870e-01 -1.297662612240173097e+00 -7.077753936268494916e-01 1.209076788157356919e-01 7.598654337596929542e-01 -1.007876636301386686e+00 -1.273536920842305298e+00 -3.768728467546677008e-01 1.046885930909602358e+00 1.253189722962597896e+00 9.863729561241367516e-02 6.938718950226003823e-01 1.005769874196881686e+00 2.398439384085639503e+00 7.690427301421927375e-02 -7.890623694520759734e-01 1.200638426884491766e-01 5.320003688138740250e-01 -5.872286977247975770e-01 -3.326971770271055506e-01 -4.012707665777552890e+00 1.799471542576671856e+00 -6.810780846344905992e-01 -7.448620171321252981e-01 -1.297190557660740540e+00 2.618205987624612485e-02 1.399271589132043747e+00 8.161556283640027110e-02 4.581222844706365205e-01 4.077481987294780397e-01 -4.357793961521728709e-01 6.347791977408310249e-01 -1.237318301836029866e+00 -2.271184165260626275e-01 -5.083729572498517646e-01 -6.199228482262456597e-01 -3.120687004383027041e-01 1.354134840963348907e+00 7.867113525270583718e-01 -1.203357111591965012e+00 9.875762325030830180e-01 -8.819434788311898421e-01 1.457198548144124882e-02 -6.039490971853997969e-01 -1.806406836817203709e+00 2.175180193723675881e+00 -8.762577408303323656e-02 1.219360173211272658e+00 8.099973215630378309e-01 -4.223932035467356516e-01 1.066042707927232991e+00 4.225047894331593890e-01 -4.800964765652948607e-01 -1.452440464240540630e+00 8.380506304747475932e-01 -3.403842618941415044e-01 2.291828582690347282e+00 -7.415648341655433073e-01 1.348323633117849418e+00 1.212015045092954102e+00 3.765745987633050129e-01 4.837510429008373136e-01 -6.447674201274324890e-01 1.024469509034647619e+00 -1.973163973656856029e+00 -1.953868871277714137e-01 -1.168132995370681826e+00 8.666850087489396115e-01 -3.767941709914288673e-01 -2.108745967868311144e+00 -2.980844691881158193e-01 1.788150974421758369e-02 3.380800390505273589e-01 1.229517574199871399e+00 -1.109133886251719270e+00 1.561791033390971806e-02 -2.226898452308665011e+00 -6.770656207093128653e-01 -9.771771477973455466e-01 -7.923477253431385758e-01 -4.451248426953203774e-01 1.549596290088961270e+00 -2.242716908705732481e-01 3.975841128721074869e-01 2.354935286559318719e-01 -1.297099540601307499e+00 1.597496974384508217e+00 -9.691460492988929198e-01 -1.695404590859433069e+00 1.182102828441975451e+00 -1.163059179972792817e-01 1.135231099716629499e+00 -6.427115658697289957e-01 -7.763683178748701508e-01 7.185416318943678160e-01 -8.552518262662532622e-03 3.984613733432535998e-01 -5.733740500846511434e-01 8.885496718398733229e-01 1.868353973064584284e-01 2.470835484444209584e-01 -1.546244599730854263e+00 -4.148058774906037693e-01 2.920614024246137586e+00 1.788107779885078408e+00 4.107862144759794609e-01 5.779069053326891803e-01 -5.601806902322501447e-01 1.893981703053435828e+00 2.437102608179740060e-01 5.439220609375854804e-02 3.173080948934654533e-01 1.343319237511053366e-01 -7.520420804138446824e-01 -6.092327146185921860e-01 -3.297434934712654142e-01 -4.094806081827555566e-01 3.095017108298844799e-01 1.044731860503019250e-01 -2.978031904790203188e-01 1.374188933058441364e+00 4.829920531848868048e-01 1.624315125235436530e-01 -3.391115657241025039e-01 5.342104892740064948e-01 -6.274417829326339735e-02 -3.484904366111095664e-01 7.898131316372304367e-01 -6.558283068415903250e-01 -1.241975084266686125e+00 -6.309719078648838853e-01 1.151614684635261732e+00 -1.825277707139665723e-02 -1.465746438420714615e+00 -2.993484236066838999e-01 -4.003681036052758047e-01 -5.224677459451126937e-01 9.688431733214573210e-03 -6.060404326696620103e-01 -3.928897923321936769e-01 7.449031547861063585e-01 4.095227742780860325e-01 -1.001965155424308529e+00 -4.243019906914569095e-01 3.840709077600037991e-01 5.398581749449313794e-01 -8.953538398083408234e-01 -1.604282116188009644e+00 -3.337497867483459751e-02 -2.682673833619682036e-01 2.521825606553734778e-01 -4.262837971719945357e-02 -2.123313839584354046e+00 -1.634375852737179891e+00 -6.053544622895277172e-01 -1.782900781332426021e-01 1.298612892047135495e-02 -2.641093949858325240e-01 -6.799575977841814112e-01 8.458004502641044975e-02 4.167264917108445821e-01 -1.530260564276513024e+00 -1.671492301041591855e+00 -1.607867262732458835e+00 2.042587364294619623e-01 -2.635998022971420759e-02 9.392394890753363867e-02 6.233686409678342866e-01 6.492812492105044520e-01 -3.668779394992942589e-01 3.412676930133848319e-01 7.374233008509999132e-02 8.269342079277154367e-01 2.313877336782846239e+00 -1.479126974598729216e+00 -6.753188130771420328e-01 -1.062436478335118339e+00 -5.933525517405532357e-01 -1.398402556191693791e-01 -2.218635954506569252e-01 2.252600230074682519e-01 8.699863054809197083e-01 4.829360031313375545e-01 -2.380841724153891226e-01 7.875670157298644281e-01 3.307647357313452385e-01 -5.247904807330183719e-01 -1.755672796603711117e-01 -4.012289090148294934e-01 -7.990752744310661848e-01 -1.520307823116470169e+00 -1.219386912686360180e-01 1.046954836480020967e+00 1.070695376592490922e+00 3.573221767001685256e-01 -6.220681768813579593e-01 -1.021437149715568538e+00 -4.821055367415948978e-01 2.235204144647441327e-01 5.004889258643814287e-01 -1.046169107288982492e+00 -7.488420851547928914e-01 -1.252554146208590402e-01 7.891029928853824371e-01 1.203150909101385224e+00 2.636733358536332839e-01 1.686463835987324078e-01 7.918067651932875206e-01 1.049702831765955580e+00 -1.928157837539551389e-01 8.633379463769055295e-01 -7.479812797452393136e-01 1.366222626365009019e+00 5.778272011281009313e-01 9.228055105305774664e-01 4.058882625488594575e-01 2.455707112192674624e-01 3.471524344153755770e-01 -9.201145937395412977e-01 -8.640228883156900741e-01 -8.734660367870428210e-01 7.653711945243831805e-01 8.813510966138624614e-01 -1.017298187504399376e+00 -1.289753898262314014e+00 3.080114993144205116e-01 -1.179982182379251565e+00 -3.934250960546222253e-01 9.877150720852687776e-03 1.227285342250723776e-01 5.969793501596586116e-02 5.423187208736736098e-01 -1.623891407399431719e+00 3.854335925481264247e-01 1.717877577008611878e-01 -8.491336286779199716e-01 -6.835252608256889850e-01 1.510632761120799472e+00 -2.741531532053084752e-01 6.773109039711749935e-01 -1.076941615128840013e+00 1.220265715819530694e+00 -5.345879272492827239e-01 -9.800953501266270740e-01 -1.502347123388339187e-02 1.027011816050677151e+00 -1.770974461222641683e+00 1.622003703302375754e+00 1.334666960437487004e+00 -1.560787788854508751e+00 2.603982643760660576e-01 -3.644513321350864032e-01 -9.976585572731662133e-01 -1.827612269003091039e-01 1.028214063988273752e+00 -1.124735341524036425e+00 1.982201916236495443e+00 -4.614035265963009058e-01 9.458708788970835446e-01 -3.638162696017537834e-01 -1.615989892511019224e-02 -9.019127245149460848e-01 -6.615556967171034586e-01 1.792316161887341108e+00 1.909171781785942157e+00 -3.588668956071573990e-01 8.777752060415587865e-01 -9.951465892769476573e-01 -6.247832620441080842e-02 7.569153497485761051e-01 6.490544778929337177e-02 -7.933232019631644150e-01 1.315687589552649639e+00 3.946258013301944811e-01 1.456255981647283981e+00 2.584216001022761056e-01 1.183458314140651280e-01 -1.663745566576283474e-01 -4.995900681248952591e-01 -7.828238442258480534e-01 1.575563919943831159e+00 7.123087630955624583e-01 -1.062901333825104100e+00 -2.320153400118331599e-01 2.015277104257942875e-01 3.786813608678100684e-01 2.454265237420638179e+00 -1.206142644987157730e+00 1.107965576878657266e-01 -1.217398421337050785e+00 -5.780148916743895748e-01 -4.101537230460205463e-01 6.846308352764299832e-01 -2.714144138915193794e-01 -3.352497684566303482e-01 -1.125212024089542240e+00 1.171343275043228854e-01 -7.228955383475883512e-01 -7.296482842485794984e-02 9.510362255750803850e-01 -1.274758194944868028e-01 1.980103381662786211e+00 -4.585454880859666238e-01 8.982293618216169451e-01 9.566556291088933461e-01 -6.875706348740514562e-01 -4.206361115010696095e-01 -9.498267785480370984e-01 7.639956542193914180e-01 -4.342238786110139692e-01 -6.428684031755317607e-02 -1.728476693556831867e+00 -3.288045265191477107e-01 -1.340566614239045551e+00 -1.354421261879192206e+00 5.850021222030726831e-01 2.232180527079833388e-01 -1.360239668814138270e+00 -1.963135127836948268e-01 4.605740886479077201e-01 4.565189444067246360e-01 -1.055034785942575715e+00 -8.640773957072150901e-01 4.459835912221750062e-03 8.185349274261322083e-01 5.996538118891022728e-01 -2.600809902197371293e-01 6.913475857301876193e-01 -2.428605625749951979e+00 2.008499675764562897e-01 -6.146520863099221854e-01 -2.255114769174274558e-01 -1.990234557396972082e-01 9.524189649695187221e-01 6.290497509826187272e-01 1.459423581003825632e+00 7.325217493791567058e-01 -5.323731788030773293e-01 1.321664890676097714e+00 -4.729462380827117451e-01 -2.846957054793048392e-01 -9.894027443398417665e-01 -3.718581667343763830e-01 -8.254373115434794350e-01 2.099979533804947063e-01 -6.589974488601563207e-01 7.089946108467132246e-01 4.984382138134255680e-01 8.007619182442896610e-01 6.116870898992372574e-01 2.040957798976294590e+00 1.304598934922054809e+00 -5.666182188596113889e-01 -3.388045759812687713e-02 6.733339212725558687e-01 1.622793032038137295e-01 -1.390153428127141488e+00 -4.344979582306628396e-01 -4.177456770882253534e-01 4.597904163395685750e-02 -7.747526365147640037e-01 -1.529540141111169760e+00 1.131080310429940283e+00 1.829827531669971474e+00 1.529865642798295067e+00 -3.041970103490266863e-01 5.134801969916003711e-02 6.832090151107095277e-02 -1.101977991341713814e+00 -1.788452821957844607e+00 -8.413730102543929279e-01 -2.724983910739203208e-01 8.241713002422123013e-01 1.938714787992441291e-01 8.348640049532395357e-01 1.052263650726276589e+00 3.149637628372197740e-01 5.901556418055500242e-01 4.071208495062669797e-01 -9.868167285664575239e-01 -2.537473341686780418e-02 -9.526812175136480099e-02 1.317500731651864987e+00 1.039409676519219422e-01 -7.534721281103613499e-01 1.176909713847541283e+00 2.691456722744638430e-01 6.315462923585943855e-01 -3.475118746670350367e-01 1.807053726426056384e-01 3.209091822788326387e-01 8.967802879601340926e-01 1.502663369103318436e+00 1.179727643145243698e+00 6.553691077790266273e-02 -9.115548763874320448e-01 -7.198318115673488782e-01 8.846158836779344226e-01 -6.660283881461942501e-01 -9.002965289341652300e-01 -6.302684539818076415e-01 -5.973002238607107994e-01 -2.402767065284447501e+00 -3.185797626221550938e-01 -6.001243238065105956e-01 1.096985937031112135e+00 -2.532004604810673243e+00 -1.070035631466769610e+00 4.647706435746506992e-01 6.388677663258736372e-02 -6.317653503660435321e-01 -1.691987080254956366e+00 -8.632875527507788416e-01 -8.675021054011383681e-01 -2.998986397286805827e-01 4.437040509709494485e-01 -2.444142289217248951e-02 3.354451723130403851e-01 -1.174855916472536732e+00 -2.349330281204399240e-01 -8.447889781968452860e-01 2.181041280974627128e-01 2.513310112179654721e-01 -6.606856353354040312e-01 4.562788033516101960e-01 -1.846521191655486005e+00 3.928753941533003058e-01 -1.046491523652058886e+00 -1.083873309824648912e+00 1.140577452072143033e-01 6.857775473811519307e-01 2.155308649968123991e+00 -6.653449888694339120e-02 5.198102534979360811e-01 6.358924855016933053e-01 6.413113429723485970e-01 -1.035337562995769067e+00 -4.261917516712118714e-01 -1.925499316651025500e-02 -4.376413892154906726e-01 8.014540592725211132e-02 1.166194383426824244e+00 2.208562371487957088e-01 2.307622356495025784e+00 4.286872646058379477e-01 2.392581382158736891e-01 1.192153785750898060e-01 1.269472006408301767e-01 -4.963782457903239687e-01 9.807972613476788615e-01 -2.073070365894585376e-01 1.040504452335790475e+00 1.065108368961187990e+00 -5.280573246797892750e-01 3.852865254351441338e-01 -2.006365659964295667e-01 1.183162637252662464e+00 2.083143948913198096e-01 2.683044072505511579e-01 -2.629883939148486283e-01 1.408285363339969010e+00 -2.205183941654762503e-01 2.707926182515956182e+00 1.070751940866714769e+00 4.687476262732697130e-01 1.254215078988075716e-01 -4.880992929266355085e-01 -1.249704335229052443e+00 -8.106827777224973053e-01 -1.489571310723845965e+00 -1.133566567392420676e+00 1.444998662635366582e+00 6.724720874216527644e-02 -1.253027229229372874e-01 -1.559631306556966135e-01 -1.228860400177523848e+00 1.760515726918631785e+00 -4.840256367411610028e-01 3.695703989523546271e-03 1.214975927738241035e+00 -6.464936589326127914e-01 1.760945615402733866e+00 1.524686412162079341e+00 -1.073602266066927546e+00 -1.436602981678506863e+00 1.145230634958075644e+00 1.468780854622492527e+00 -6.373168767707876325e-01 -7.934862099170643113e-01 -1.788608116601623221e+00 -1.656577330370083478e+00 6.661502584461131971e-01 8.779947782696827518e-01 7.977249309391378773e-01 1.749280519395729261e+00 -1.274341676198309792e-01 1.154481979117741586e-01 8.284089928229364519e-01 1.509649056969977407e-02 -2.435421106573263939e-01 -1.308428850507691532e+00 -2.517871763785479722e+00 1.808822645547241911e-02 1.358344765627635953e-01 5.505066566779289738e-01 -1.858928308096173598e+00 1.568015674658981062e+00 6.340628883408857552e-01 6.430103280817663913e-01 -2.057115126798031213e+00 7.755316808370303905e-01 -4.250578950833589498e-01 3.155690005714161805e-01 -1.839649146557949422e+00 -1.397209564226242762e-01 -6.380090177990189737e-01 4.319448525804632233e-01 -6.547880384165441492e-02 -3.829992718737971757e-01 1.105749285770427415e+00 1.748603290767066110e+00 -2.129104992823538101e-01 -4.946802891222557008e-02 7.056182378962175816e-01 3.539380904395515726e-02 -5.353721137782967432e-01 -3.252846860003931750e-01 -1.744757948561186156e+00 1.534773879138910113e-01 -2.458522984607677930e+00 -4.781840898758503433e-02 2.440049092646133122e+00 6.077985531566775235e-01 -8.682148152563603505e-01 6.383931406430671807e-01 1.365371076927601068e+00 1.040785216824210879e+00 -8.698783191392194247e-01 1.976096574165031150e+00 -9.781351409144294351e-01 5.204242329836035186e-01 7.349103044134319696e-01 8.133294715355037230e-01 2.181884602881238866e-01 7.834573640971564945e-01 2.635329536094228597e-01 -1.654528675201826893e+00 1.161685696550500024e+00 -8.076411624312725968e-01 1.119067601246795940e-01 -2.102127947784107942e+00 7.035783244794318048e-01 1.301266270728913821e-01 6.852967510502483428e-02 6.859431264384258098e-01 -2.198910449422650515e-01 2.106800156835006987e+00 3.506239381907023112e-01 3.099691374232442231e-01 -9.678939219558442275e-01 6.121884550571314865e-01 3.717409244205303609e-01 6.951811008605478515e-01 9.869190584807353561e-01 -4.995185914511031111e-01 3.896322043575684568e-01 -1.104108921817932715e-01 -6.434700413650047690e-02 2.357105297806819655e-01 -1.074960322868977469e+00 -2.222975977001570656e-03 3.742508355340498083e-01 1.441065388694102278e+00 1.648676329702345900e+00 -1.101648890109865331e+00 -3.233990387860363191e-01 -1.621584099231768938e+00 -6.501641661090729052e-01 1.091231807680510979e+00 -1.166252490363072630e-03 -2.464577418832340494e-01 3.900677492690928783e-01 1.484815283702960453e+00 6.882483777233894262e-01