1.030427300000000024e+01 5.646202999999999861e+00 1.127029999999999976e-01 8.899103000000000208e+00 1.111357300000000059e+01 1.122607299999999952e+01 3.338382999999999878e+00 7.874263000000000012e+00 6.855793000000000248e+00 9.978873000000000104e+00 1.141067299999999918e+01 1.100333000000000006e+00 7.903603000000000378e+00 5.463912999999999798e+00 2.211930000000000007e-01 1.332777300000000054e+01 4.715392999999999724e+00 3.798392999999999908e+00 5.281233000000000288e+00 8.693929999999999714e-01 1.242967299999999931e+01 1.197607299999999952e+01 1.068097299999999983e+01 9.106472999999999374e+00 7.180193000000000048e+00 8.826883000000000479e+00 2.460563000000000056e+00 8.930163000000000295e+00 1.064867300000000050e+01 5.368262999999999785e+00 1.192437299999999922e+01 5.811643000000000114e+00 7.126432999999999574e+00 1.075667299999999926e+01 4.333592999999999584e+00 5.586752999999999858e+00 2.053030000000000133e-01 1.308397300000000030e+01 8.085413000000000849e+00 7.011002999999999652e+00 1.120147300000000001e+01 1.299607300000000087e+01 8.744313000000000002e+00 7.721813000000000038e+00 1.200797299999999979e+01 6.705293000000000170e+00 8.592833000000000609e+00 6.375293000000000099e+00 6.851993000000000222e+00 8.554112999999999190e+00 8.898103000000000762e+00 7.461973000000000411e+00 2.369653000000000009e+00 7.460112999999999772e+00 6.486042999999999559e+00 1.082647300000000001e+01 9.511872999999999578e+00 7.631512999999999991e+00 4.160313000000000372e+00 1.031207299999999982e+01 2.056813000000000002e+00 7.108543000000000056e+00 2.136813000000000073e+00 3.157553000000000054e+00 1.213397299999999923e+01 7.651843000000000394e+00 4.847629999999999995e-01 6.034292999999999907e+00 7.281003000000000114e+00 7.709622999999999671e+00 1.279617299999999958e+01 8.486930000000000307e-01 2.820212999999999859e+00 7.722963000000000022e+00 1.124967299999999959e+01 1.019117299999999915e+01 1.407742999999999967e+00 1.091937300000000022e+01 3.195552999999999866e+00 3.862512999999999863e+00 3.729462999999999973e+00 7.481733000000000189e+00 8.000002999999999531e+00 2.705730000000000079e-01 4.994663000000000075e+00 6.481453000000000131e+00 3.518463000000000118e+00 1.063577300000000037e+01 2.218332999999999888e+00 2.213642999999999805e+00 1.203507300000000058e+01 6.354442999999999842e+00 2.507522999999999946e+00 1.023697300000000077e+01 1.377227300000000021e+01 1.725853000000000081e+00 4.681230000000000113e-01 1.269277300000000075e+01 5.602883000000000280e+00 1.327577299999999916e+01 8.785913000000000750e+00 4.456113000000000213e+00 1.282617300000000071e+01 1.111377300000000012e+01 1.131437299999999979e+01 1.034997300000000031e+01 3.709763000000000144e+00 4.010543000000000191e+00 1.731129999999999891e-01 5.904873000000000260e+00 1.057643000000000111e+00 4.135329999999999839e-01 8.256029999999999758e-01 3.967392999999999947e+00 2.083213000000000203e+00 1.269847299999999990e+01 2.295929999999999915e-01 7.696653000000000411e+00 6.593932999999999822e+00 6.452352999999999561e+00 1.250957299999999961e+01 1.315287299999999959e+01 1.283057299999999934e+01 1.251997300000000024e+01 4.339163000000000103e+00 1.374957299999999982e+01 1.692029999999999923e-01 1.698542999999999914e+00 1.109727299999999950e+01 8.664412999999999698e+00 6.750223000000000084e+00 8.606742999999999810e+00 6.835652999999999757e+00 9.966673000000000116e+00 4.522992999999999597e+00 3.269572999999999841e+00 1.104707299999999925e+01 3.818093000000000181e+00 9.847072999999999965e+00 9.220473000000000141e+00 1.032657299999999978e+01 4.909529999999999728e-01 8.487073000000000533e+00 6.680272999999999683e+00 3.740152999999999839e+00 3.653052999999999884e+00 1.369542999999999955e+00 5.709633000000000180e+00 1.298767299999999913e+01 2.219402999999999793e+00 1.071937299999999915e+01 1.283527300000000082e+01 4.556243000000000265e+00 3.988913000000000153e+00 6.469693000000000360e+00 9.498573000000000377e+00 4.424529999999999852e-01 1.354337300000000077e+01 9.890173000000000769e+00 7.254230000000000400e-01 7.249830000000000441e-01 1.313687299999999958e+01 3.493292999999999981e+00 1.350117299999999965e+01 2.877053000000000083e+00 1.243637299999999968e+01 6.124330000000000052e-01 2.184722999999999971e+00 4.186692999999999998e+00 1.142237300000000033e+01 9.917129999999999557e-01 1.102687300000000015e+01 7.866163000000000238e+00 3.868233000000000033e+00 3.170732999999999802e+00 9.917372999999999550e+00 1.182617300000000071e+01 8.759073000000000775e+00 8.311629999999999852e-01 8.914103000000000776e+00 5.618863000000000163e+00 5.287663000000000224e+00 5.499102999999999852e+00 9.596572999999999354e+00 5.392913000000000068e+00 1.108847300000000047e+01 1.032477300000000042e+01 1.225957299999999961e+01 1.263527299999999975e+01 5.400930000000000453e-01 2.788203000000000209e+00 2.718713000000000157e+00 6.688023000000000273e+00 1.301587299999999914e+01 5.681763000000000119e+00 2.891182999999999836e+00 7.480353000000000030e+00 4.352743000000000251e+00 5.923953000000000024e+00 5.941552999999999862e+00 1.039857300000000073e+01 3.224073000000000189e+00 4.751029999999999975e-01 6.587222999999999828e+00 3.271732999999999780e+00 9.378973000000000226e+00 1.792613000000000012e+00 2.343132999999999910e+00 1.652512999999999899e+00 1.732563000000000075e+00 1.390252999999999961e+00 8.747363000000000000e+00 1.288497300000000045e+01 1.143447300000000055e+01 2.592922999999999867e+00 1.253447300000000020e+01 4.496703000000000117e+00 1.155027300000000068e+01 5.943502999999999759e+00 1.095207300000000039e+01 7.321733000000000047e+00 9.363072999999999979e+00 5.612629999999999564e-01 1.083167300000000033e+01 3.882702999999999793e+00 1.916829999999999923e-01 9.736473000000000155e+00 9.754872999999999905e+00 7.213523000000000351e+00 6.629922999999999789e+00 2.550803000000000154e+00 1.852622999999999909e+00 9.234873000000000332e+00 8.187233000000000871e+00 7.190362999999999616e+00 4.144763000000000197e+00 2.974723000000000006e+00 2.589072999999999958e+00 1.280117300000000036e+01 9.837573000000000789e+00 3.656393000000000004e+00 8.101129999999999720e-01 1.078757300000000008e+01 7.398373000000000310e+00 1.270387299999999975e+01 8.111242999999999981e+00 1.032297299999999929e+01 1.074087300000000056e+01 3.385663000000000089e+00 2.807243000000000155e+00 3.336453000000000113e+00 1.028237299999999976e+01 7.198802999999999841e+00 1.055503000000000080e+00 1.370707299999999940e+01 4.588153000000000148e+00 4.336592999999999698e+00 1.161517300000000041e+01 1.114197300000000013e+01 1.192512999999999934e+00 8.543362999999999374e+00 8.536092999999999265e+00 4.405830000000000024e-01 4.658832999999999558e+00 6.046422999999999881e+00 4.215753000000000306e+00 8.372629999999999795e-01 1.063747299999999996e+01 1.050427299999999953e+01 7.028793000000000291e+00 1.857330000000000092e-01 1.124127299999999963e+01 1.501163000000000025e+00 1.091007300000000058e+01 8.010623000000000715e+00 6.240973000000000326e+00 4.154562999999999562e+00 1.944803000000000059e+00 5.019772999999999818e+00 1.187607299999999988e+01 6.313753000000000171e+00 1.114967299999999994e+01 9.061173000000000144e+00 2.048192999999999930e+00 1.291817299999999946e+01 5.039073000000000135e+00 1.135227300000000028e+01 1.151877299999999948e+01 7.110330000000000261e-01 3.184693000000000218e+00 9.073873000000000744e+00 7.939573000000000214e+00 2.816723000000000088e+00 5.124043000000000347e+00 1.310947299999999949e+01 9.348072999999999411e+00 2.062329999999999997e-01 6.108272999999999620e+00 2.435262999999999955e+00 1.111707299999999954e+01 5.170082999999999984e+00 1.687152999999999903e+00 7.081323000000000256e+00 1.292357299999999931e+01 2.229532999999999987e+00 7.521832999999999991e+00 1.184947299999999970e+01 4.337030000000000052e-01 6.346142999999999645e+00 1.150397300000000023e+01 7.701292999999999722e+00 1.316067299999999918e+01 4.298562999999999690e+00 5.642153000000000418e+00 7.344323000000000157e+00 1.360983000000000054e+00 4.753273000000000081e+00 5.413763000000000325e+00 3.311142999999999947e+00 2.024472999999999967e+00 1.035297300000000043e+01 7.728993000000000002e+00 8.244433000000000789e+00 1.279847299999999954e+01 3.723362999999999978e+00 8.766023000000000565e+00 1.128107299999999924e+01 9.732872999999999664e+00 1.193092999999999959e+00 1.958183000000000007e+00 3.228982999999999937e+00 4.371753000000000000e+00 2.396023000000000014e+00 4.201143000000000072e+00 7.458813000000000137e+00 3.961253000000000135e+00 5.326882999999999591e+00 3.228473000000000148e+00 1.192507299999999937e+01 2.748533000000000115e+00 8.166353000000000861e+00 1.482083000000000039e+00 1.136847299999999983e+01 3.260632999999999893e+00 4.879703000000000124e+00 6.072033000000000236e+00 9.073572999999999666e+00 5.269162999999999819e+00 7.191462999999999717e+00 1.324187300000000000e+01 6.922432999999999836e+00 9.734472999999999487e+00 4.711833000000000382e+00 4.743682999999999872e+00 1.105697299999999927e+01 9.323873000000000744e+00 6.522103000000000428e+00 8.915423000000000542e+00 1.770062999999999942e+00 4.826312999999999853e+00 6.646632999999999569e+00 3.542832999999999899e+00 1.904733000000000009e+00 1.324507299999999965e+01 2.779329999999999856e-01 1.347467299999999923e+01 1.206787300000000052e+01 8.805512999999999479e+00 3.790283000000000069e+00 1.318917300000000026e+01 5.465182999999999680e+00 7.601973000000000091e+00 1.139457299999999940e+01 1.940012999999999987e+00 1.131917299999999926e+01 1.942463000000000051e+00 3.702002999999999933e+00 9.308673000000000641e+00 5.842773000000000216e+00 9.114130000000000287e-01 1.367857300000000009e+01 1.108507299999999951e+01 1.335517300000000063e+01 1.283007300000000050e+01 1.139837299999999942e+01 4.907042999999999822e+00 5.648830000000000240e-01 1.064677299999999960e+01 8.666002999999999901e+00 9.312072999999999823e+00 6.671693000000000318e+00 9.517172999999999661e+00 9.885172999999999988e+00 3.662773000000000057e+00 1.115267300000000006e+01 1.151687300000000036e+01 4.301173000000000357e+00 1.141027300000000011e+01 7.301072999999999702e+00 2.452732999999999830e+00 4.361922999999999995e+00 4.724352999999999803e+00 1.084862999999999911e+00 1.184117299999999950e+01 5.493130000000000512e-01 2.040633000000000141e+00 9.951873000000000857e+00 1.271007299999999951e+01 8.516443000000000652e+00 1.926703000000000054e+00 8.162433000000000050e+00 1.833682999999999952e+00 1.329730000000000079e-01 1.365227299999999921e+01 1.201637299999999975e+01 1.997813000000000061e+00 2.100623000000000129e+00 1.297977299999999978e+01 1.050337299999999985e+01 9.342230000000000256e-01 5.460299999999999876e-02 2.818332999999999977e+00 1.027097299999999969e+01 6.811573000000000100e+00 5.882532999999999568e+00 5.756183000000000050e+00 3.012753000000000014e+00 9.890273000000000536e+00 3.065363000000000060e+00 1.450512999999999941e+00 6.248623000000000260e+00 1.285932999999999993e+00 3.940662999999999805e+00 5.707430000000000003e-01 1.212247299999999939e+01 5.335753000000000412e+00 1.902752999999999917e+00 5.686952999999999925e+00 9.192672999999999206e+00 1.032597299999999940e+01 1.010927299999999995e+01 4.540299999999999891e-02 4.689413000000000054e+00 5.031382999999999939e+00 6.900913000000000075e+00 8.896083000000000851e+00 1.120972999999999997e+00 4.236112999999999573e+00 6.848842999999999570e+00 6.863142999999999994e+00 6.850522999999999918e+00 9.997272999999999854e+00 3.167142999999999819e+00 9.427372999999999337e+00 1.272357300000000002e+01 1.452512999999999943e+00 1.145917299999999983e+01 7.106103000000000058e+00 7.190352999999999994e+00 3.441292999999999935e+00 1.243537300000000023e+01 4.305229999999999890e-01 1.010207300000000075e+01 9.897529999999999939e-01 9.588673000000000002e+00 1.123117300000000007e+01 1.120317299999999960e+01 8.038543000000000660e+00 2.509523000000000170e+00 1.181537299999999924e+01 8.808462999999999710e+00 9.022273000000000209e+00 1.504192999999999891e+00 1.164247300000000074e+01 3.051702999999999832e+00 1.226563000000000070e+00 5.484263000000000332e+00 7.237729999999999997e-01 7.376732999999999763e+00 7.553213000000000399e+00 1.301957299999999940e+01 9.823373000000000133e+00 8.910553000000000168e+00 1.232727299999999993e+01 6.905522999999999634e+00 1.234957299999999947e+01 5.260873000000000133e+00 5.534773000000000387e+00 1.155417300000000047e+01 9.373629999999999463e-01 1.731662999999999952e+00 1.222767299999999935e+01 3.294122999999999912e+00 4.225642999999999816e+00 1.122347300000000025e+01 2.574643000000000015e+00 7.971422999999999703e+00 5.622683000000000320e+00 1.569153000000000020e+00 1.309597300000000075e+01 1.065577299999999994e+01 1.009617300000000029e+01 1.048097300000000054e+01 2.051393000000000022e+00 3.659933000000000103e+00 1.362137300000000018e+01 9.884373000000000076e+00 9.121973000000000553e+00 5.010073000000000221e+00 3.441600000000000215e-02 5.652582999999999913e+00 1.138017299999999921e+01 1.280157299999999942e+01 5.084533000000000413e+00 5.244703000000000337e+00 4.195842999999999989e+00 1.109757300000000058e+01 4.780043000000000042e+00 6.808823000000000292e+00 4.937573000000000434e+00 4.669893000000000072e+00 6.636302999999999841e+00 7.587272999999999712e+00 1.076737299999999919e+01 5.395102999999999760e+00 1.111107299999999931e+01 1.168817300000000081e+01 3.915273000000000003e+00 7.276983000000000423e+00 1.371117300000000050e+01 4.647223000000000326e+00 2.885442999999999980e+00 6.773032999999999859e+00 1.026287300000000080e+01 1.563300000000000106e-02 4.032573000000000185e+00 2.667743000000000198e+00 3.701229999999999798e-01 1.158387300000000053e+01 2.758132999999999946e+00 6.168662999999999563e+00 2.090803000000000189e+00 7.906672999999999618e+00 6.146092999999999584e+00 1.070813000000000015e+00 1.134897300000000087e+01 7.809833000000000247e+00 1.076777300000000004e+01 1.198397300000000065e+01 1.087187300000000079e+01 7.068303000000000225e+00 2.669763000000000108e+00 1.937683000000000044e+00 7.020373000000000197e+00 3.517853000000000119e+00 7.926243000000000372e+00 7.921162999999999954e+00 6.190922999999999732e+00 1.252937299999999965e+01 3.294732999999999912e+00 1.291867300000000007e+01 5.469822999999999880e+00 1.240347299999999997e+01 5.390793000000000390e+00 8.025263000000000702e+00 1.381801899999999961e+01 1.379337300000000077e+01 7.799703000000000053e+00 7.789242999999999917e+00 3.075603000000000087e+00 1.192517299999999913e+01 2.274283000000000055e+00 8.488982999999999279e+00 2.865929999999999866e-01 2.963042999999999871e+00 7.828072999999999837e+00 1.015007300000000079e+01 3.435872999999999955e+00 2.719222999999999946e+00 1.379197300000000048e+01 4.832423000000000357e+00 2.148130000000000039e-01 9.494873000000000118e+00 1.237097299999999933e+01 1.154397299999999937e+01 1.348007300000000086e+01 1.247117300000000029e+01 9.222872999999999877e+00 1.056727300000000014e+01 7.396053000000000210e+00 5.064953000000000038e+00 1.105657300000000021e+01 1.758730000000000016e-01 7.542163000000000395e+00 2.458123000000000058e+00 5.382430000000000270e-01 2.529103000000000101e+00 6.167812999999999768e+00 8.621952999999999534e+00 7.678923000000000165e+00 7.599013000000000240e+00 1.153297300000000014e+01 3.629530000000000256e-01 2.967522999999999911e+00 1.232007300000000072e+01 3.298703000000000163e+00 7.030953000000000230e+00 2.927423000000000108e+00 1.021667300000000012e+01 1.352127300000000076e+01 2.609029999999999960e-01 2.894813000000000081e+00 3.300762999999999892e+00 2.339732999999999841e+00 1.125823000000000018e+00 1.214097300000000068e+01 6.874443000000000303e+00 9.905172999999999561e+00 1.043517300000000070e+01 7.001413000000000331e+00 1.363127300000000020e+01 8.443330000000000002e-01 1.145277300000000054e+01 5.070852999999999611e+00 4.390029999999999766e-01 8.778003000000000000e+00 2.649299999999999919e-02 4.103252999999999595e+00 9.793929999999999580e-01 7.595722999999999558e+00 3.875430000000000264e-01 9.493772999999999129e+00 3.861762999999999835e+00 7.852793000000000134e+00 2.254353000000000051e+00 1.350847300000000040e+01 4.827162999999999649e+00 2.857300000000000118e-02 2.901803000000000132e+00 1.096667300000000012e+01 5.261932999999999971e+00 1.129797300000000071e+01 2.632903000000000215e+00 1.311427300000000074e+01 6.818312999999999846e+00 4.004983000000000182e+00 1.002477299999999971e+01 8.140230000000000521e-01 7.730913000000000146e+00 3.214373000000000147e+00 6.438053000000000026e+00 1.864303000000000043e+00 7.558303000000000438e+00 1.227647299999999930e+01 4.690633000000000052e+00 4.278143000000000029e+00 5.583029999999999937e-01 1.025067300000000081e+01 2.670643000000000100e+00 1.335677300000000045e+01 1.364737299999999998e+01 1.268327299999999980e+01 6.826852999999999838e+00 7.283533000000000257e+00 3.354893000000000125e+00 4.093882999999999939e+00 3.689242999999999828e+00 1.074977299999999936e+01 5.103843000000000352e+00 9.749373000000000289e+00 8.590052999999999273e+00 1.150237300000000040e+01 1.302117299999999922e+01 1.199277299999999968e+01 1.234387300000000032e+01 1.514972999999999903e+00 9.488673000000000357e+00 9.499173000000000755e+00 1.168067300000000053e+01 1.347677299999999967e+01 5.277833000000000219e+00 7.788030000000000230e-01 5.669300000000000034e-02 4.933902999999999928e+00 8.945229999999999571e-01 3.422930000000000139e-01 8.497272999999999854e+00 9.933673000000000641e+00 6.411542999999999992e+00 9.086073000000000732e+00 1.019792999999999950e+00 9.673572999999999311e+00 7.162012999999999963e+00 1.376977300000000071e+01 1.012087299999999956e+01 1.109807299999999941e+01 9.555773000000000295e+00 1.003047300000000064e+01 4.264643000000000406e+00 5.244543000000000177e+00 1.176627299999999998e+01 1.837672999999999890e+00 5.340993000000000102e+00 6.966363000000000305e+00 9.624772999999999357e+00 3.097812999999999928e+00 8.666812999999999434e+00 7.967642999999999809e+00 5.866430000000000256e-01 2.177922999999999831e+00 3.980872999999999884e+00 8.072843000000000657e+00 1.354267300000000063e+01 9.109272999999999954e+00 3.802163000000000181e+00 5.396792999999999729e+00 8.681093000000000615e+00 8.938473000000000113e+00 4.282282999999999618e+00 1.054387299999999961e+01 1.561913000000000107e+00 5.377613000000000198e+00 6.651733000000000118e+00 1.301217300000000066e+01 6.801973000000000269e+00 1.609703000000000106e+00 1.273267300000000013e+01 1.469082999999999917e+00 6.399943000000000382e+00 7.026112999999999609e+00 1.324577299999999980e+01 2.037523000000000195e+00 1.188477299999999914e+01 8.964472999999999914e+00 1.355127300000000012e+01 1.344907300000000028e+01 8.181582999999999828e+00 5.667112999999999623e+00 9.602873000000000658e+00 1.120837299999999992e+01 6.470593000000000039e+00 7.710442999999999714e+00 6.709113000000000326e+00 8.272829999999999906e-01 5.778143000000000029e+00 6.742022999999999655e+00 2.360983000000000054e+00 1.227767300000000006e+01 5.544102999999999781e+00 3.528833000000000109e+00 1.026283000000000056e+00 2.094152999999999931e+00 1.588133000000000017e+00 6.805353000000000208e+00 4.811702999999999619e+00 1.368687300000000029e+01 4.062242999999999604e+00 2.782722999999999836e+00 3.856933000000000167e+00 1.166147300000000087e+01 1.101197299999999935e+01 1.046787300000000087e+01 9.470672999999999675e+00 1.337597300000000011e+01 4.247982999999999620e+00 8.358643000000000711e+00 6.048392999999999908e+00 7.440323000000000242e+00 7.932163000000000075e+00 7.760353000000000279e+00 9.083773000000000764e+00 7.767402999999999835e+00 5.362002999999999631e+00 2.842493000000000158e+00 1.157607299999999917e+01 1.347227299999999950e+01 1.711893000000000109e+00 8.695572999999999553e+00 6.406202999999999648e+00 1.155297299999999971e+01 1.340517299999999956e+01 4.584730000000000194e-01 1.074587299999999956e+01 7.111563000000000301e+00 1.139877300000000027e+01 8.447642999999999347e+00 5.667392999999999681e+00 1.157697300000000062e+01 1.029947300000000077e+01 6.966002999999999723e+00 5.261553000000000146e+00 9.833472999999999686e+00 1.028537299999999988e+01 1.126207299999999911e+01 1.361127300000000062e+01