-7.790298149835143704e+04
-7.790448943040877930e+04
-7.790609154030690843e+04
-7.790169461089141259e+04
-7.790373404019704321e+04
-7.790717824343177199e+04
-7.790837607682008820e+04
-7.790116963165032212e+04
-7.790650302897432994e+04
-7.790638829005615844e+04
-7.790837824371989700e+04
-7.790067003899630799e+04
-7.790163946713328187e+04
-7.790567127890312986e+04
-7.790694181017896335e+04
-7.790215935981085931e+04
-7.790792130560561782e+04
-7.790310866866301512e+04
-7.790261185007098538e+04
-7.790484762423111533e+04
-7.790237130435020663e+04
-7.790508505557778699e+04
-7.791012899896816816e+04
-7.790730391808635613e+04
-7.790708046918688342e+04
-7.790776234731456498e+04
-7.790090228745383502e+04
-7.790382539148414799e+04
-7.790367576656024903e+04
-7.790593576755002141e+04
-7.790427933687430050e+04
-7.790601176967230276e+04
-7.790911139677354367e+04
-7.790934659208099765e+04
-7.790610270666019642e+04
-7.790651466634191456e+04
