2.117398244941877561e+00 4.210058361662243898e-01 3.668547995689298569e-01 -1.280091177562837634e+00 1.289367204314892490e+00 4.531065760089956207e-01 -1.360718408262343138e+00 6.121015517630964409e-01 -1.437554804147493703e+00 1.730676529603469294e-01 1.174318555867409186e+00 -1.779182451633212647e+00 -6.926526778027367603e-01 6.660371298976651699e-01 -2.509396892844706350e-01 1.080393064297850980e+00 -9.452574136320909259e-01 -1.671805461432522844e+00 -2.038167637595029280e+00 -8.846292534154783782e-01 1.478538706146800275e-01 -2.887518781618374497e-01 8.922808570559556118e-01 8.394056019527486034e-01 -4.512152723672164245e-01 2.092450314685063262e+00 6.133583070922178360e-01 1.435873302541017749e+00 2.243740207848511359e-01 3.478085799963734348e-02 3.242793845812310671e-01 1.328129158778546849e-02 9.077624989110529841e-01 6.529188462637797175e-01 -2.608518070112072484e-01 1.475672954326344488e+00 -1.574866122488177478e+00 -6.249997489481833313e-01 -1.297173074157798381e-02 8.228389544739006523e-01 7.938060551767670558e-01 4.721209138997167210e-01 7.269460546026985659e-01 1.740328451668775589e-01 -8.264924923680936342e-01 1.124425780677829195e-01 -4.455223352769123735e-01 1.707869300015694369e+00 -7.671714811067292805e-01 8.759306964811830465e-01 -4.479371155656006187e-01 -1.971472187636885032e+00 6.310387565526029974e-01 1.009466606627754948e-01 -8.104194967370185188e-01 -7.202946101746358909e-02 1.112138477654361246e+00 -1.052622576757261230e+00 -3.761930470226306222e-01 -1.013664704216522106e+00 3.327619688321257208e-01 1.810864615846726533e+00 -1.103590073157096452e+00 4.407277417054197288e-01 -7.946905147373599654e-01 1.040652547890122070e+00 2.567809790394438796e+00 1.528252532541562569e+00 -6.373359029357538175e-01 4.476805194488937822e-02 1.145294398321746288e+00 1.619513332574497255e+00 -3.283263012916178836e-01 -7.120444536687341452e-01 1.030918864737528473e+00 -6.638588911193681009e-04 1.463727093830919257e+00 2.209935854910249464e+00 1.286367755118998257e+00 -7.457120239075090140e-01 -1.785270310201735100e+00 -4.896933770184015433e-01 -1.078538270323980086e+00 7.176875113535860495e-02 1.498792315863700653e+00 -2.172870314452639007e-01 -1.811679655616226681e+00 5.878246794868481340e-01 4.043934230473225644e-02 -8.672588790219754040e-02 3.546024635513456702e-01 2.211396241626577108e+00 -1.879903369419767323e+00 5.639668970605320464e-01 8.483849233754646724e-01 -4.380378533557330867e-01 6.656000423241165143e-01 5.068354374323096323e-01 -6.584148368356494974e-01 -8.783351923563760266e-01 4.852988471318747110e-01 2.385541701121227653e-01 -6.998584521181944185e-01 -1.155521733322112832e+00 -1.037889640204619157e+00 5.234715047022505674e-01 -2.593101734282670101e-01 -1.655564315640799755e+00 -1.061754107499707223e+00 5.781676152147940950e-01 -2.566269699473522695e-02 -1.379808850812929144e+00 4.555840912200050941e-01 -2.596497133398131929e+00 -5.869314781747845405e-02 -5.410131145804496500e-01 8.656108017593592274e-01 -3.026960001993927313e-02 3.496685161769922390e-01 -7.339080883183183301e-01 -1.148914511872079824e+00 8.491264295884733970e-01 1.803726718660337847e-01 1.052454426596613812e+00 2.097337467978013237e+00 2.127628665266292796e+00 -6.837134655926523363e-01 -2.866615711189247628e-01 -1.466196381511132296e+00 8.215174073397590870e-01 -9.208962091651814452e-01 -1.893508620032653411e+00 -6.023879232168185549e-01 -8.361742392325364204e-01 8.063751511300053243e-02 4.389521377154622095e-01 1.036648311495740604e-01 -7.649737019427911289e-01 1.525460314277597984e+00 -1.710865663887539911e+00 -1.680890198093565102e+00 -1.382842238573357696e-02 -1.133773284103675616e+00 1.012614151377980720e+00 -9.697739127427787431e-02 -1.417661148902927382e+00 -8.449874673773039024e-01 -3.232751116034184302e-01 5.315823074052915542e-01 8.911608844263211315e-01 -3.085231488858100057e-01 7.663117041385251182e-01 -4.339467136673166858e-01 -6.530355743569510318e-01 4.126636341595401047e-01 9.272031257411527116e-01 -9.168451786893965227e-01 -1.521697247379680540e-01 9.962105118530325543e-01 -6.290502652032935460e-01 -1.072095085269196613e+00 4.258261407714552388e-02 -6.355397301188058234e-01 1.133132050922245782e+00 1.929998747555203842e-01 1.458972609472058146e-01 1.049913662242608403e+00 4.372382402064762807e-01 8.502186343016704395e-01 -2.792449663268142812e-01 7.703128552088579772e-02 1.024421686511894691e+00 -1.735814622585703848e+00 -1.569091938531260721e+00 -1.619505619264375973e+00 3.766229355067327589e-01 1.252601454510668733e+00 -1.048759751048439881e+00 -3.136417014824035010e-01 -5.944905220938043189e-02 -3.904410734789710569e-01 -9.413781328616768196e-01 9.286167183760770660e-01 -7.578152359294118012e-01 1.285366567465233978e-01 -6.025905261626751663e-01 -1.271323715058124249e+00 4.539524690189811751e-01 3.773865532087561925e-01 1.288194781176431880e-01 -1.371760783032209385e+00 -1.617373146126132588e-01 -1.244048422027331569e+00 3.211647499541899764e-01 -1.436561844024525580e+00 6.109399272588061924e-01 8.842538723229010911e-01 1.845981259946984476e+00 -8.405816246359323340e-01 -1.297790138967514460e-02 -2.449263927137891317e-01 6.340094093907103767e-01 4.000652276278402475e-01 2.083241650841403114e+00 1.891756155973060016e-01 4.427517142812879558e-01 -4.963257952814980993e-03 -1.260208835173116437e+00 -1.121417589730463904e+00 3.526232281741819019e-01 1.148725792884441654e+00 -2.132020624049445479e-01 3.170504703354091181e-01 -2.032456188560434196e+00 3.580929934916387003e-01 9.205321409274490607e-01 4.325202655155233611e-01 -3.312589017997927821e-01 -1.139466221193979667e+00 -2.956897435057433410e-01 3.641062900623202592e-01 -8.192995735695052240e-01 -7.916540416528827784e-01 1.241394529124878243e+00 6.710579805660536702e-04 1.200484160682062790e-01 1.276300856969158071e+00 2.955207705920161132e+00 -1.503401275771603651e-01 -1.648156966820834901e+00 -3.684314001577539965e-01 4.768239761911015062e-01 6.916129235983654588e-01 5.902518010717308083e-01 7.534433317525744966e-01 -5.214655298499990543e-01 3.697966560492504384e-01 1.709655188419147154e-01 -5.164400511955378192e-01 -6.683521513754494547e-01 -6.867154858919202187e-01 -4.111883350436442153e-01 2.111040420519104677e-01 6.031541120222158048e-01 -5.364267803822361236e-01 2.557030182389376627e+00 -1.082440176804083665e+00 -4.874981689578372079e-01 -2.083673596208204248e-01 9.230111988004828794e-01 -1.390209478180690850e+00 1.066262794376031442e+00 7.297830100653674990e-01 -1.245894988470406389e-01 -1.589332692731292018e-01 9.176730739757653355e-02 -3.390406032709851747e-01 -9.097592177911588418e-02 -1.062750152946723842e-01 -1.854648963640793902e+00 -1.816376033038839433e+00 1.809182600019575982e-01 4.207296996638766329e-01 -7.738141837833211190e-01 -7.051004176767310394e-01 -2.523039167346176059e-01 -8.946889524758718792e-01 7.975521527924174237e-01 1.141887686351440001e+00 8.928845521281275621e-01 6.773746673348455261e-01 6.149050828819058179e-01 -4.192077093107123176e+00 1.514464219368460762e+00 -1.061217261115254384e+00 8.949362926204330604e-01 -9.486065328868238389e-01 1.174629145154965970e+00 -1.765252727774550667e+00 1.690299922221058238e-01 9.727857032348672384e-01 1.527656550779511901e+00 1.245663589166762897e+00 1.643663192344078983e+00 -3.688947129857156892e-01 -2.756274238798547271e-01 -1.019884717498458354e-01 -2.723348688993456057e-01 5.408213102687629836e-02 -1.211562016678487730e+00 2.687422661551120306e+00 3.938051051332722707e-01 -3.885137743899583773e-01 -1.470917955746808559e-01 -1.479039557084019352e+00 1.571045977095360868e+00 2.613166625011932309e-01 1.079977059771967784e+00 -1.261331893126799442e-01 8.318547855645248151e-03 -1.145436837448655931e-01 -2.064935394819830683e-01 -3.707603055937568337e-01 2.327958755740563213e+00 1.044991541943774527e+00 6.681999420557195313e-01 -1.002916463672620440e+00 -3.270304651912144256e-01 1.875371542613078590e+00 2.216502967147651493e+00 -2.919446743314424997e-01 5.198771021856554361e-03 -3.846560908878843832e-01 -3.237165700527026679e+00 3.094498773858683549e+00 -3.798033903801434352e-02 4.241400111789065397e-01 1.395985204799631729e+00 -7.841088816920814830e-01 1.820003859899294030e+00 -1.170242328578560809e+00 5.476979833523719643e-01 -3.486380179447666205e-01 1.141626462248660073e-01 -3.280141693420365878e-01 6.763925058460478201e-01 2.387202633900712967e-01 7.889276436352880839e-02 5.685429468452502660e-02 9.986216925969977620e-02 -9.623917607358775106e-01 5.779727255790588769e-01 2.072109287453453241e+00 -1.975183318246651609e-01 1.986069369931389716e-01 1.174258906269136649e-01 3.357670744554422382e-01 -1.114085831349689526e+00 -2.826773893308590635e-01 -3.883497379947088990e-01 -1.768199726461619159e+00 4.330900220231611031e-01 -3.641386859648302887e-01 3.044788032787969501e-01 1.424344989233500280e-01 -4.986372172145589476e-01 4.059381419543113823e-01 -2.767083157382070890e-01 3.173168366449364841e-01 6.826325737342998634e-01 -1.427707992446451968e-01 -7.873968086865178462e-01 3.502680974837661942e-01 3.470454765150248200e-01 -3.774549445584996499e-01 -7.702717175548771111e-01 -1.147401160426251565e-01 -1.702286406149789766e+00 -3.821029852376847669e-01 8.537616147507892661e-01 -2.015919880101396888e+00 -2.112675642264852105e-01 -1.475733632365966663e+00 8.042730170115732768e-01 4.053365037648384295e-01 -4.572146849796793755e-01 -8.806805528539712880e-01 -5.146243379929487105e-01 1.262566022746230976e-02 -2.448136241198135110e+00 -7.579587034976708049e-01 -2.844874461060257001e-02 -8.077491487729727693e-01 -7.236833244213256022e-02 5.349797634034524074e-02 5.501765270047309642e-01 4.838281760020518019e-01 -4.609885505117669591e-01 -1.250724034827108033e+00 -2.841840559079154144e-02 3.059654152495375201e-01 2.537257369003379726e+00 8.215919693375998145e-01 1.990219130776729184e-01 4.523136477285107093e-02 -9.162229716729329565e-02 -9.922247874029426207e-01 -6.492426826598971523e-01 4.502012291965832858e-01 3.152440131049658034e-01 -5.260462076207902404e-01 -8.831297859278686158e-01 -1.422900029137415645e+00 1.304951176084267583e+00 2.107595141998190591e-01 1.217535718257212601e-01 -6.706949407696708443e-01 7.759949936649921387e-01 -2.363749028924760909e-01 -2.419500834482593288e-01 1.811383464507562713e-01 3.059649010288628124e-01 -9.175100660218654669e-01 -8.590318624464379216e-01 1.169043680185687606e+00 1.718654564448178990e+00 -8.374340798857063950e-01 -1.941642246293868501e+00 1.800071638104120630e+00 -1.069576432404206079e+00 9.174858976501515384e-01 -1.617943931075119940e-02 1.871192471189277451e-01 -5.968610794044629936e-02 -7.487155868688012417e-01 -9.461151337175960352e-01 2.637844075193821469e-01 8.865071873197136743e-01 7.524719688979467636e-01 1.699375402909954813e+00 5.265105488901014250e-03 -4.974930762132106499e-01 -1.075919344427410801e-01 -1.463707039224603434e+00 -5.263521689222744326e-01 -1.776900854499287918e+00 1.621744021861620255e-01 9.211476630751407324e-01 1.333744448546961558e-01 6.998677080903401571e-01 -1.510415245775374726e-01 2.081832686192551518e-01 2.295009551784433111e+00 3.156415056865577440e-01 8.834959110483000533e-01 9.285848366942417442e-02 -1.436773702942528153e-01 9.840990723003337770e-01 -8.539966135991561291e-01 3.317917372629824335e+00 6.920536107166375128e-02 -3.935063429212348196e-01 2.276547486898407302e-01 -3.214007772439063104e-01 6.182860838184741636e-01 2.147652932562248984e-01 -1.167862515295756243e+00 1.629369914468359326e-01 3.042530089805083993e+00 -1.426170986849584654e+00 3.085401181680771932e-01 -3.937814509822331610e-01 4.746354529993089821e-01 -3.103815424044044091e-01 -1.750596924323123194e+00 5.077661768536311238e-01 5.642440620042293853e-02 7.749871211424561590e-01 -9.306828570472758244e-02 -1.693992026665858408e-01 -4.115230927029152053e-01 8.765045667542188668e-02 1.896785234172244927e-01 -4.376609296011316763e-01 -1.262695606356271538e+00 2.854279557201677142e-01 -9.774671682579119114e-01 1.131749825748482152e+00 5.302767011120675944e-01 8.113908595916463629e-01 3.438454812559730844e-01 1.250586223686271481e+00 -1.001706502424902334e+00 -1.196658873082498964e+00 2.899690384990020187e-01 6.046124418558443958e-01 -1.579888001597915315e+00 -3.949168502321104279e-01 6.289494779510398370e-01 -2.200550813375145298e-01 -4.834347971858579673e-01 -7.440536622313974613e-01 -2.204120019078676940e+00 6.116927463266595977e-01 1.276398558897362812e-01 -2.057605693321755247e+00 2.577942508790649345e-01 1.013842624569990081e+00 -5.700655542632242501e-01 -3.581295031595468914e-01 4.401836962315202051e-01 4.799072433569819829e-01 -3.935042860385357666e-01 6.312768407250184399e-01 -1.652741244136349541e-01 6.630196829781543899e-01 5.146680467503036288e-02 7.668984299284300477e-01 -7.679880635382534404e-01 -4.372341264410781192e-01 4.646842545012904169e-01 5.219900349382575744e-01 -5.106859218449369964e-01 2.346676902522620844e-01 1.340165007892055726e+00 -4.858336366336286072e-01 -1.981544227993473073e-01 8.582127089115400009e-01 -8.954582266053178197e-01 -1.502989899231793047e-01 1.418894250081009778e-01 -2.981040095737568646e-02 -1.308407767460026072e+00 6.665724336200937739e-01 7.923554386532599692e-01 1.250180503573883328e+00 -8.518014055385918215e-02 -3.352019459338774210e-01 -2.492155073619894412e-01 5.823770256584062111e-01 3.873310668380028909e-01 -1.597020806039677554e+00 5.296472950061572585e-04 3.921621700774036157e-01 -4.512373838562312445e-01 1.122611610137264293e+00 1.178789704634475743e+00 8.265583126144633586e-02 -4.627821522253411368e-01 4.178634336227461943e-01 1.192111619655567445e+00 5.384414969859585565e-01 5.007419224363649501e-01 -4.939860912113252372e-02 -5.410943614470622443e-01 1.290378676382151646e+00 1.166582105815595849e+00 1.463790857194589845e-01 -1.984711827350014723e-01 1.771384809321102649e+00 9.883578479287231655e-01 -2.873861080496661891e-01 -8.292733977772133447e-02 -5.053092304696121806e-02 8.123370256332106409e-01 -6.390755114784780755e-01 2.296972332100004344e-01 -3.458031193647967960e-01 -7.627754085581781585e-01 -9.800922648025782724e-01 1.760500814519063706e+00 1.191281153265824955e+00 -9.483689629350832151e-01 -3.749614885065726266e-01 -6.776338345549262066e-01 -4.293320973319910694e-01 1.289037588862369077e+00 -2.771063225404738484e-01 -4.861180006667726317e-01 -1.080843007388269106e+00 -1.013316062599032508e+00 -4.990043707763399672e-01 -5.739402070475655426e-01 1.808699232585298522e-01 -6.003238414283187385e-01 4.228441750785030262e-01 -6.171455423618492642e-01 2.368587845474283138e-01 -3.580677966785753008e-01 1.753153115297371167e-01 -8.232153640078274659e-01 -2.583506376491587209e-01 6.767570883044549124e-01 -2.533245933519551851e+00 -1.261381258311576659e+00 -2.449738038600022705e+00 -1.614056422773909594e-01 -1.111017476583377128e+00 -8.526987206160536736e-01 -1.041226418163157863e+00 4.333646158634846257e-01 -3.101270031703965979e-01 -7.855954936628221918e-02 -2.425270904674111883e+00 -5.737293765709124971e-01 1.062672505624834507e+00 6.653038512154527684e-01 -1.180368362105999047e+00 -6.986114669818934697e-01 7.943953520700458570e-01 -3.013230309977747989e-01 2.570769130377701384e-01 1.991437833775917987e+00 6.978720176515839091e-01 1.045805553271924815e+00 -2.252646509935411490e-01 7.366571120456028021e-02 3.298386242960966164e-01 7.868116255586372620e-01 -1.309010434090848607e+00 -8.100739404435775004e-01 -1.450831981969880946e+00 -6.630160834334311026e-01 6.520189600829440213e-01 -1.956375697067185060e+00 1.157887662646698512e+00 4.838508017117414128e-02 3.121093238716089457e-01 7.997771856521180833e-01 -6.625090618481144222e-01 -3.271610772426042923e-01 4.968194471292708414e-02 2.471376958814735403e+00 1.942332330439400900e+00 -8.155077103138009820e-01 -4.071804991045394756e-02 -3.582683427417329147e-01 1.029795806783845524e+00 -1.960287373740109418e+00 -3.836698156336884602e-01 1.032956721271615308e+00 -6.413457957575576796e-01 6.471544324996836295e-01 4.875963851067169341e-01 9.692164975313353192e-01 -1.799909144370895442e+00 -6.519623958087200633e-01 1.664563177449157050e-01 4.545659342839737660e-02 -1.324180972437714265e+00 1.363828414903311081e+00 -1.953622045353828052e-01 -6.389443852064133900e-01 -1.379654070389825238e-01 -2.288796223371268156e-03 3.670162648608055189e-01 3.034693880942367361e-01 -6.322024379395922988e-01 -8.481226708313354123e-01 -9.816709222741014651e-01 1.961309644441538713e-01 -7.451520375926917739e-02 5.474439583390390274e-01 -1.905269875305838634e-01 -9.483489083287675037e-01 -6.697492889487811629e-01 9.162574244581421778e-01 8.611021148830348970e-01 -3.438336541804534741e-02 -1.764867062268478115e-01 -1.369859709197609465e+00 -5.744775676526930885e-01 1.027173281342552924e+00 -6.362149018647700327e-01 1.997238242987247614e-01 -9.040976481620154326e-01 7.401173029660846892e-01 3.827272491368474139e-01 -1.362953211314864355e+00 -9.691887296148981035e-01 9.099201688623596018e-01 -2.342758540980924287e-01 -9.244813557096308587e-01 9.904147306277759355e-02 3.059155358440854844e-01 3.392097818729822856e-01 8.551109298013681581e-01 1.613389992779416415e+00 2.145220668770618511e-01 -7.770923405849369248e-01 -2.139629547373917529e+00 2.482344771586761034e+00 1.158040386187103310e-01 -5.888793460907876254e-01 -5.947208929560983126e-01 -3.727549675911634997e-01 -1.094321759715163545e+00 -3.276290180566389099e-01 -2.030760288775064482e-01 3.404840207050455758e-01 -4.273189233902929263e-01 2.089885381959343813e-01 -3.062602693844468149e+00 3.203425625173109914e+00 -5.021508870852162687e-01 -2.983863167242018499e-01 8.841541135119970196e-01 -5.477247228274596536e-01 -1.304953232966966636e-01 9.183554448111762580e-01 -1.331368749029555182e-02 -1.115870691311792617e+00 -1.135619336326075812e+00 5.444707343975578873e-01 1.273333803675773812e-01 -1.329496985773417073e-01 -1.244994073848221250e+00 -2.874889521846188956e-01 1.012181691790504878e+00 -1.176396007393452736e+00 -9.812492613207958181e-01 -1.126409129820391097e+00 -4.583115176789493983e-01 -5.786540679731202452e-01 8.679438209607600596e-01 5.179873412059005089e-01 -7.638516724304577066e-01 -1.074232700614187408e+00 5.040869279256999791e-01 6.666511093833324963e-01 -5.634007400976176472e-01 -9.293767365333771568e-02 -7.364478242309741018e-01 -9.381020329427601778e-01 1.045708879785069323e+00 1.050599118402067988e-01 -2.643633685770980790e+00 1.991614725688036547e+00 -2.603905510659446643e-01 1.177191506777311325e+00 -3.316759347670257263e-01 -3.197820105597515283e-01 -4.343586044278019975e-01 2.296581524387184270e-01 -1.838238639247074202e+00 -1.485794359867709524e-01 7.658262798215487166e-01 6.513386461302321795e-01 -1.843815362464881757e-01 2.865803242523121686e-01 3.458041478061463225e-01 -7.057771320847194829e-01 -1.049967141192784004e+00 -1.589471532313478264e+00 -4.329948911983297899e-01 1.170777632300989135e-01 1.219253215310921734e-01 -2.997520868363731106e-01 -1.245634278588301225e+00 -4.179518795788054186e-01 -1.597238321385102244e+00 1.161861045800594433e-01 2.001107239344166455e+00 3.843131056978173199e-02 -5.886284064015031570e-01 -8.577581378350492836e-01 1.888449717034332620e+00 8.771041480609926833e-01 -1.803382190808246799e+00 2.082937232201943267e+00 -4.796125949103426933e-01 2.100696871646241970e+00 8.677700143726900794e-01 -4.014654505252205907e-01 -5.219843785108352341e-01 4.875089675920072918e-01 -6.345663103814790373e-01 -1.153458165754287945e+00 2.147901301148159359e+00 1.095666961000344219e+00 9.477210448848817359e-01 1.097007534299452164e-01 1.792179893408528679e+00 -1.224998088689376985e+00 5.089314009026446595e-01 1.284469252387772320e+00 -1.262465235493977600e+00 2.650107209845575351e+00 9.073387810750481730e-01 -1.601530007136676703e-01 1.124010290372620346e+00 1.267949913211002255e-01 1.256371720498032918e+00 9.392749703018951069e-01 2.136895436046201135e-01 2.883970658962508038e-01 6.456163984614666784e-01 7.701976697777110914e-01 1.553614924662236052e-02 4.324678150066975091e-01 6.356600577567004251e-01 1.706540039571431411e+00 -6.344871203975654961e-01 4.013065563367186894e-01 9.713834234547877866e-01 -8.991822127319534230e-01 -2.172402373638604167e-01 6.053986852675573571e-01 1.141369351911278418e+00 -5.315154587175722201e-01 7.080299328608573584e-01 2.657461593936039645e-01 -1.318245837409597054e-01 -4.602917814974626931e-01 1.885868329247021025e-01