6.715345000000000120e+00 1.273086499999999965e+01 6.631325000000000358e+00 9.451154999999999973e+00 1.408676499999999976e+01 1.463696500000000000e+01 9.089904999999999902e+00 1.116906499999999980e+01 1.229196499999999936e+01 6.973695000000000199e+00 2.498955000000000037e+00 1.395296500000000073e+01 1.106066500000000019e+01 1.288736500000000085e+01 8.420355000000000700e+00 1.727905000000000024e+00 5.608735000000000248e+00 3.522254999999999914e+00 6.019994999999999763e+00 1.168266500000000008e+01 1.069246500000000033e+01 8.450874999999999915e+00 8.855645000000000877e+00 1.212416499999999964e+01 5.816605000000000025e+00 5.922864999999999824e+00 5.076624999999999943e+00 1.358516499999999994e+01 4.951934999999999754e+00 7.234815000000000218e+00 6.801345000000000418e+00 1.023426500000000061e+01 1.315194999999999892e+00 1.032696499999999951e+01 3.023445000000000160e+00 1.534634999999999971e+00 1.458876500000000043e+01 6.258935000000000137e+00 5.693665000000000198e+00 9.163555000000000561e+00 4.669240000000000057e-01 6.123124999999999929e+00 4.455364999999999576e+00 2.010854999999999837e+00 6.638925000000000409e+00 1.178856500000000018e+01 1.375546499999999916e+01 1.411846500000000049e+01 6.923574999999999591e+00 1.402616500000000066e+01 4.807299999999999907e-01 6.970950000000000202e-01 7.704385000000000261e+00 3.899094999999999978e+00 4.764714999999999812e+00 1.291636500000000076e+01 1.462586499999999923e+01 1.481186499999999917e+01 4.074114999999999931e+00 9.013415000000000177e+00 1.307386499999999963e+01 1.141866500000000073e+01 1.835704999999999920e+00 1.071966500000000089e+01 1.105606500000000025e+01 1.540224999999999955e+00 1.984800000000000106e-02 1.211206499999999942e+01 1.274926499999999940e+01 8.011464999999999392e+00 3.322814999999999852e+00 2.442285000000000039e+00 5.616645000000000110e+00 6.545905000000000307e+00 1.381776499999999963e+01 7.334064999999999834e+00 4.756334999999999980e+00 1.069986500000000085e+01 4.118569999999999731e-01 1.167086499999999916e+01 1.881745000000000001e+00 1.056336499999999923e+01 1.635045000000000082e+00 9.728764999999999219e+00 2.201740000000000086e-01 9.799649999999999750e-01 1.159106500000000040e+01 7.554705000000000226e+00 1.013576499999999925e+01 1.387996500000000033e+01 1.161686500000000066e+01 1.985395000000000021e+00 4.319244999999999557e+00 1.410656499999999980e+01 2.677385000000000126e+00 7.342525000000000190e+00 5.758874999999999744e+00 1.415936499999999931e+01 1.090396499999999946e+01 9.388325000000000031e+00 6.685565000000000424e+00 7.821850000000000191e-01 1.068986499999999928e+01 1.258836499999999958e+01 1.085676499999999933e+01 2.431979999999999975e-01 1.203756500000000074e+01 7.609614999999999796e+00 1.227546500000000052e+01 1.025586500000000001e+01 1.490376499999999993e+01 1.051296499999999945e+01 1.345416499999999971e+01 5.988095000000000390e+00 5.773344999999999949e+00 1.430136500000000055e+01 2.571905000000000108e+00 4.226234999999999964e+00 1.015516500000000022e+01 1.151626500000000064e+01 7.367835000000000356e+00 1.328436499999999931e+01 4.249385000000000190e+00 9.270035000000000025e+00 7.906695000000000029e+00 1.016616499999999945e+01 8.515034999999999243e+00 8.251349999999999518e-01 1.303066500000000083e+01 1.040319999999999995e-01 1.312676500000000068e+01 1.489066500000000026e+01 4.993405000000000094e+00 4.451554999999999929e+00 1.019606500000000082e+01 2.664705000000000101e+00 1.224046500000000037e+01 8.160904999999999632e+00 4.947174999999999656e+00 1.468306499999999915e+01 6.452874999999999694e+00 1.331056500000000042e+01 1.498571899999999957e+01 3.926850000000000063e-01 1.317696499999999915e+01 8.568125000000000213e+00 1.355616500000000002e+01 9.640164999999999651e+00 4.010894999999999655e+00 1.004456500000000041e+01 1.316346500000000042e+01 1.344816499999999948e+01 7.315445000000000420e+00 5.396275000000000155e+00 7.452914999999999957e+00 9.053464999999999208e+00 3.876535000000000064e+00 2.534485000000000099e+00 1.135286499999999954e+01 3.108814999999999884e+00 6.908250000000000224e-01 5.238235000000000419e+00 1.529895000000000005e+00 6.921895000000000131e+00 1.065436500000000031e+01 1.395806499999999950e+01 4.388185000000000002e+00 2.601089999999999791e-01 4.287725000000000009e+00 4.393684999999999619e+00 6.507055000000000256e+00 8.990394999999999470e+00 2.183945000000000025e+00 4.410404999999999909e+00 3.724794999999999856e+00 1.066326500000000088e+01 1.490156499999999973e+01 3.809165000000000134e+00 1.094896499999999939e+01 4.431144999999999889e+00 1.365726500000000065e+01 3.540224999999999955e+00 1.298876500000000078e+01 7.543549999999999978e-01 3.967865000000000197e+00 1.965004999999999891e+00 1.280106499999999947e+01 1.248646500000000081e+01 1.220356499999999933e+01 7.140385000000000204e+00 7.700084999999999624e+00 1.684835000000000083e+00 1.120886499999999941e+01 7.169534999999999769e+00 8.947805000000000675e+00 1.443036500000000011e+01 6.790074999999999861e+00 1.487336499999999972e+01 9.711864999999999526e+00 5.918955000000000410e+00 4.714895000000000280e+00 1.041696499999999936e+01 6.076274999999999871e+00 1.354226500000000044e+01 3.371535000000000171e+00 6.173085000000000377e+00 9.261065000000000325e+00 1.342445000000000110e+00 1.625254999999999894e+00 1.487435000000000063e+00 1.580484999999999918e+00 1.020706500000000005e+01 1.359286499999999975e+01 1.117876500000000028e+01 5.020324999999999704e+00 1.158076499999999953e+01 2.978319999999999856e-01 9.721664999999999779e+00 8.586394999999999555e+00 4.161794999999999689e+00 8.111264999999999503e+00 1.491576500000000038e+01 1.231166499999999964e+01 1.655675000000000008e+00 1.989645000000000108e+00 4.542345000000000077e+00 1.866645000000000110e+00 1.362966499999999925e+01 7.218004999999999782e+00 4.641115000000000101e+00 1.344146500000000088e+01 2.088814999999999866e+00 9.415634999999999977e+00 1.040096499999999935e+01 1.279846500000000020e+01 1.887315000000000076e+00 1.117586499999999994e+01 2.041704999999999881e+00 1.476486500000000035e+01 3.201354999999999951e+00 2.286305000000000032e+00 9.733849999999999447e-01 1.020626500000000014e+01 1.327946500000000007e+01 8.302495000000000402e+00 8.159525000000000361e+00 8.917535000000000878e+00 2.450299999999999978e-01 8.668364999999999654e+00 8.272895000000000110e+00 1.174566500000000069e+01 2.429285000000000139e+00 1.232966500000000032e+01 6.885144999999999627e+00 1.236396500000000032e+01 7.665225000000000399e+00 7.530445000000000277e+00 5.000085000000000335e+00 4.251195000000000057e+00 1.093406500000000037e+01 6.784665000000000390e+00 1.705430000000000001e-01 4.921795000000000364e+00 1.140486499999999914e+01 1.781115000000000004e+00 7.687554999999999694e+00 1.436326500000000017e+01 6.649964999999999904e+00 5.404995000000000438e+00 2.836644999999999861e+00 1.282096499999999928e+01 8.299649999999999528e-01 6.407704999999999984e+00 7.640995000000000203e+00 5.042609999999999593e-01 1.085776500000000055e+01 1.594905000000000017e+00 1.000856500000000082e+01 3.532834999999999948e+00 3.422905000000000086e+00 1.482716500000000082e+01 1.411166500000000035e+01 3.563814999999999955e+00 1.401376499999999936e+01 9.604765000000000441e+00 3.601844999999999963e+00 1.305506500000000081e+01 3.148315000000000197e+00 2.042574999999999807e+00 5.027364999999999640e+00 5.894244999999999735e+00 1.054116499999999945e+01 5.406385000000000218e+00 2.395214999999999872e+00 9.563565000000000538e+00 6.168784999999999741e+00 7.235364999999999824e+00 1.320135000000000058e+00 1.116994999999999960e+00 1.394356499999999954e+01 7.697334999999999816e+00 7.349834999999999674e+00 8.291494999999999393e+00 9.504104999999999137e+00 9.329834999999999212e+00 5.424895000000000245e+00 1.094446499999999922e+01 1.124686499999999967e+01 5.123255000000000337e+00 5.124514999999999709e+00 7.804305000000000270e+00 1.171276499999999920e+01 1.188016499999999986e+01 9.288764999999999716e+00 6.180145000000000444e+00 6.186485000000000234e+00 1.105326499999999967e+01 8.367364999999999498e+00 1.199716500000000075e+01 1.649955000000000060e+00 5.585854999999999571e+00 6.377749999999999808e-01 9.058524999999999494e+00 3.821194999999999897e+00 9.506265000000000853e+00 6.088364999999999583e+00 1.458506500000000017e+01 8.982184999999999420e+00 2.812914999999999832e+00 1.525924999999999976e+00 1.326906499999999944e+01 7.825694999999999624e+00 1.233256500000000067e+01 7.394150000000000444e-01 1.097266499999999922e+01 1.285746499999999948e+01 3.094015000000000182e+00 1.025626500000000085e+01 1.076636500000000041e+01 4.371245000000000047e+00 1.422236499999999992e+01 1.077696500000000057e+01 1.388624999999999998e+00 5.151114999999999888e+00 2.262385000000000090e+00 1.070426499999999947e+01 1.354146500000000053e+01 1.493006500000000081e+01 5.617664999999999687e+00 1.357726500000000058e+01 6.871134999999999771e+00 9.708864999999999412e+00 1.230296500000000037e+01 1.183276500000000020e+01 1.342046500000000009e+01 6.089554999999999829e+00 6.381384999999999863e+00 4.619849999999999790e-01 1.402004999999999946e+00 1.288306500000000021e+01 4.390805000000000291e+00 1.410296499999999931e+01 2.474025000000000141e+00 8.036349999999999882e-01 6.685575000000000045e+00 1.482926499999999947e+01 8.573100000000000165e-02 2.951334999999999820e+00 8.272304999999999353e+00 8.253394999999999371e+00 7.566625000000000156e+00 9.206649999999999556e-01 2.256984999999999797e+00 1.339626499999999965e+01 3.260674999999999990e+00 6.368084999999999773e+00 3.521839999999999971e-01 1.133196500000000029e+01 2.843024999999999913e+00 2.179565000000000197e+00 1.039736500000000063e+01 3.173259999999999970e-01 1.321966500000000089e+01 1.351576500000000003e+01 7.546185000000000365e+00 1.293876500000000007e+01 5.605735000000000134e+00 8.645635000000000403e+00 1.139855000000000063e+00 1.170996500000000040e+01 1.427646499999999996e+01 1.282046500000000044e+01 6.970024999999999693e+00 7.768365000000000187e+00 3.592165000000000052e+00 1.414256499999999939e+01 1.226316500000000076e+01 5.854255000000000209e+00 1.149896500000000010e+01 3.651234999999999786e+00 1.278146500000000074e+01 8.953385000000000815e+00 6.536385000000000112e+00 8.965624999999999289e+00 1.980494999999999894e+00 1.452386500000000069e+01 4.035554999999999559e+00 1.441904999999999992e+00 6.885550000000000281e-01 1.212446500000000071e+01 6.294049999999999923e-01 4.191345000000000098e+00 1.192426500000000011e+01 3.571105000000000196e+00 7.294774999999999565e+00 4.760945000000000427e+00 1.207616499999999959e+01 7.429734999999999978e+00 1.224555000000000060e+00 1.382706499999999927e+01 1.779004999999999947e+00 3.934010000000000007e-01 1.966965000000000074e+00 1.861644999999999994e+00 6.986234999999999751e+00 3.655524999999999913e+00 1.327576499999999982e+01 1.083416500000000049e+01 6.046550000000000535e-01 1.106776499999999963e+01 1.257706499999999927e+01 5.041864999999999597e+00 6.355175000000000018e+00 7.199085000000000178e+00 5.260424999999999685e+00 3.310775000000000023e+00 1.886975000000000069e+00 5.913935000000000386e+00 2.046015000000000139e+00 6.414215000000000444e+00 9.490175000000000693e+00 6.315595000000000070e+00 1.405426499999999912e+01 3.867234999999999978e+00 3.951715000000000089e+00 1.461166500000000035e+01 5.473365000000000258e+00 1.245726499999999959e+01 1.496716499999999961e+01 1.429326499999999989e+01 9.211994999999999933e+00 9.990064999999999529e+00 1.168906499999999937e+01 8.261249999999999982e-01 6.122015000000000207e+00 1.146846500000000013e+01 7.542605000000000004e+00 8.952984999999999971e+00 1.312536500000000039e+01 5.582754999999999690e+00 2.677084999999999937e+00 1.388616500000000009e+01 1.019906499999999916e+01 5.769425000000000026e+00 6.024695000000000356e+00 5.121624999999999872e+00 1.053796499999999980e+01 7.810925000000000118e+00 2.989735000000000031e+00 1.134016500000000072e+01 7.173955000000000304e+00 1.061446499999999915e+01 7.744625000000000092e+00 1.003416499999999978e+01 4.036864999999999704e+00 9.363514999999999588e+00 4.430479999999999974e-01 8.569884999999999309e+00 6.608665000000000234e+00 4.371794999999999654e+00 8.302364999999999995e+00 1.382226499999999980e+01 3.887729999999999797e-01 1.489566499999999927e+01 1.069436499999999945e+01 7.693304999999999616e+00 7.035705000000000098e+00 1.180016499999999979e+01 7.560164999999999580e+00 1.051806500000000000e+01 6.259604999999999642e+00 8.233444999999999681e+00 7.850724999999999731e+00 2.682439999999999825e-01 9.564764999999999517e+00 5.005524999999999558e+00 1.130956499999999920e+01 1.166216499999999989e+01 1.243796500000000016e+01 1.300356500000000004e+01 8.426054999999999851e+00 1.140816500000000033e+01 7.021765000000000256e+00 1.341456499999999963e+01 2.807174999999999976e+00 9.962464999999999904e+00 4.229294999999999582e+00 1.207144999999999913e+00 4.538369999999999904e-01 1.076686499999999924e+01 5.178874999999999673e+00 9.441549999999999665e-01 7.041405000000000136e+00 2.152845000000000120e+00 6.660650000000000182e-01 4.278635000000000410e+00 1.039586500000000058e+01 5.000284999999999869e+00 1.269786500000000018e+01 1.389926499999999976e+01 9.439750000000000085e-01 1.106946499999999922e+01 3.783485000000000209e+00 4.975484999999999935e+00 9.728065000000000850e+00 3.807545000000000179e+00 1.351556500000000050e+01 1.388536500000000018e+01 1.241626499999999922e+01 1.276896499999999968e+01 1.347376500000000021e+01 4.503734999999999822e+00 1.169216499999999925e+01 2.778820000000000179e-01 1.456806500000000071e+01 4.437915000000000276e+00 1.251506499999999988e+01 2.952104999999999979e+00 9.642299999999999482e-02 9.200084999999999624e+00 1.365766499999999972e+01 5.671305000000000263e+00 2.365099999999999841e-02 9.456504999999999939e+00 1.494186499999999995e+01 1.356696499999999972e+01 1.117816499999999991e+01 1.942825000000000024e+00 1.277695000000000025e+00 1.058376499999999965e+01 8.769254999999999356e+00 6.016524999999999679e+00 2.958075000000000010e+00 4.499975000000000058e+00 6.774845000000000006e+00 1.253356499999999940e+01 1.875285000000000091e+00 3.319504999999999928e+00 6.109304999999999986e+00 5.075145000000000017e+00 4.031964999999999577e+00 1.342966499999999996e+01 3.656445000000000167e+00 6.721474999999999866e+00 1.393616500000000080e+01 1.308615000000000084e+00 7.055204999999999949e+00 8.622785000000000366e+00 7.715184999999999960e+00 1.137026499999999984e+01 7.958865000000000300e+00 2.718725000000000058e+00 3.676194999999999879e+00 9.763465000000000060e+00 1.054776500000000006e+01 4.732115000000000293e+00 1.424056500000000014e+01 1.395876499999999965e+01 5.620150000000000423e-01 9.889665000000000816e+00 1.455736500000000078e+01 5.470514999999999795e+00 6.437554999999999694e+00 1.297896500000000053e+01 1.081556499999999943e+01 6.582575000000000287e+00 6.614435000000000286e+00 2.290904999999999969e+00 8.247725000000000861e+00 1.125936500000000073e+01 1.341656500000000030e+01 1.099706499999999920e+01 1.030886500000000083e+01 4.150039999999999840e-01 6.572905000000000442e+00 1.475376499999999957e+01 1.608114999999999961e+00 4.934775000000000134e+00 3.284835000000000171e+00 1.093496500000000005e+01 1.019816499999999948e+01 4.101469999999999838e-01 9.116804999999999382e+00 8.184050000000000491e-01 5.719095000000000262e+00 6.216154999999999653e+00 1.093406500000000037e+01 4.271485000000000198e+00 1.696914999999999951e+00 1.028066500000000083e+01 1.301126499999999986e+01 7.254145000000000287e+00 1.276526499999999942e+01 2.922004999999999963e+00 1.209616499999999917e+01 1.257786499999999918e+01 9.802265000000000228e+00 1.363266499999999937e+01 1.195596500000000084e+01 1.276976499999999959e+01 1.113586500000000079e+01 1.206706499999999949e+01 1.050956500000000027e+01 5.626204999999999679e+00 8.552424999999999500e+00 2.005510000000000070e-01 7.374245000000000161e+00 1.360314999999999941e+00 1.088516500000000065e+01 2.504094999999999960e+00 1.452136499999999941e+01 8.592095000000000482e+00 8.712085000000000079e+00 8.256684999999999164e+00 8.744144999999999612e+00 5.444485000000000241e+00 4.610834999999999795e+00 1.078396500000000024e+01 5.506395000000000373e+00 9.605264999999999276e+00 2.630465000000000053e+00 9.639264999999999972e+00 2.147804999999999964e+00 8.327800000000000480e-02 1.385166500000000056e+01 1.021716499999999961e+01 6.634034999999999904e+00 1.794874999999999998e+00 6.388754999999999740e+00 5.454394999999999882e+00 1.416176500000000082e+01 2.751774999999999860e+00 1.080776499999999984e+01 1.393566500000000019e+01 7.306784999999999641e+00 4.422604999999999897e+00 2.087514999999999787e+00 9.355195000000000149e+00 1.115586500000000036e+01 1.771744999999999903e+00 2.122075000000000156e+00 4.768385000000000318e+00 4.574275000000000091e+00 1.335596499999999942e+01 9.346849999999999881e-01 1.362794999999999979e+00 8.481685000000000585e+00 4.761015000000000441e+00 9.988664999999999239e+00 4.601675000000000182e+00 9.005425000000000679e+00 1.221866499999999967e+01 1.048186500000000088e+01 5.255485000000000184e+00 3.793705000000000105e+00 1.371716499999999961e+01 7.997004999999999697e+00 1.476216499999999954e+01 6.996755000000000280e+00 1.133706500000000084e+01 2.067625000000000046e+00 1.256846499999999978e+01 7.418375000000000163e+00 8.790155000000000385e+00 1.028936500000000009e+01 1.260026500000000027e+01 9.531164999999999665e+00 8.448035000000000849e+00 8.139775000000000205e+00 9.084934999999999761e+00 1.457086499999999951e+01 7.039155000000000051e+00 4.507634999999999614e+00 1.332475000000000076e+00 1.260766500000000079e+01 8.161844999999999573e+00 8.215555000000000163e+00 6.372494999999999798e+00 7.382814999999999905e+00 1.404126499999999922e+01 1.211166500000000035e+01 1.182376499999999986e+01 1.032936499999999924e+01 2.382884999999999920e+00 3.976515000000000022e+00 5.006635000000000169e+00 3.260295000000000165e+00 6.843135000000000190e+00 6.507234999999999658e+00 1.080476499999999973e+01 9.707164999999999822e+00 6.815775000000000361e+00 1.025586500000000001e+01 1.496356499999999912e+01 8.641135000000000232e+00 1.588764999999999983e+00 5.559994999999999798e+00 1.412796499999999966e+01 1.187866499999999981e+01 2.585564999999999891e+00 4.357635000000000147e+00 8.226949999999999541e-01 1.447436500000000059e+01 6.061914999999999942e+00 1.340196500000000057e+01 1.465996499999999969e+01 6.211904999999999788e+00 4.989114999999999966e+00 9.906164999999999665e+00 1.279784999999999950e+00 2.739805000000000046e+00 2.273464999999999847e+00 1.441314999999999902e+00 9.947565000000000879e+00 9.367554999999999410e+00 1.396016499999999994e+01 5.054454999999999920e+00 8.557444999999999524e+00 1.343966499999999975e+01 3.431515000000000093e+00 1.433996499999999941e+01 2.613889999999999825e-01 4.135984999999999800e+00 1.030816500000000069e+01 1.684525000000000050e+00 8.218954999999999345e+00 1.101396500000000067e+01 3.638005000000000155e+00 2.203275000000000095e+00 1.263826500000000053e+01 6.420955000000000190e+00 7.569225000000000314e+00 8.147214999999999208e+00 5.596834999999999560e+00 7.709645000000000081e+00 1.038556499999999971e+01 3.060575000000000045e+00 7.389314999999999856e+00 1.444556500000000021e+01 4.195075000000000109e+00 7.056494999999999962e+00 8.622025000000000716e+00 8.330854999999999677e+00 1.275236499999999928e+01 3.410895000000000010e+00 1.175656500000000015e+01 1.610864999999999991e+00 1.033166499999999921e+01 1.270024999999999959e+00 8.904854999999999521e+00 1.395006500000000038e+01 1.283606499999999961e+01 8.757284999999999542e+00 6.976365000000000371e+00 1.182676499999999997e+01 1.142166500000000084e+01 2.364454999999999973e+00 5.318164999999999587e+00 7.437185000000000379e+00 1.484746499999999969e+01 1.254196499999999936e+01 1.447106499999999940e+01 6.591364999999999696e+00 1.083386499999999941e+01 4.524244999999999628e+00 1.039536499999999997e+01 1.055455000000000032e+00 1.845984999999999987e+00 1.362609999999999932e-01 5.273975000000000080e+00 6.691175000000000317e+00 1.251296499999999945e+01 4.910784999999999734e+00 5.561585000000000001e+00 6.081965000000000288e+00