-7.791747860262586619e+04
-7.791750232748306007e+04
-7.791659653790331504e+04
-7.791701629031072662e+04
-7.791517714315597550e+04
-7.791707350044343912e+04
-7.791677368511230452e+04
-7.791841507271642331e+04
-7.791724402304954128e+04
-7.791593188898022345e+04
-7.791522376217684359e+04
-7.791619541478368046e+04
-7.791673321900915471e+04
-7.791765872892878542e+04
-7.791390330248621467e+04
-7.791421773778916395e+04
-7.791626047351105080e+04
-7.791572565686178859e+04
-7.791524002847720112e+04
-7.791708340552184382e+04
-7.791579540378254023e+04
-7.791745126343453012e+04
-7.791434004238893976e+04
-7.791755792882725655e+04
-7.791699000742089993e+04
-7.791475913183004013e+04
-7.791703816611801449e+04
-7.791509737684043648e+04
-7.791741161883898894e+04
-7.791477660325965553e+04
-7.791543208648481232e+04
-7.791530496746423887e+04
-7.791478855763400497e+04
-7.791555578817150672e+04
-7.791779515202985203e+04
-7.791823095142286911e+04
