-7.021554758723618228e-01 1.404164398852415951e+00 6.908801591368277650e-01 -8.138184953972036340e-01 -6.841191857050404543e-03 7.227896088885872317e-01 -5.198534480346163056e-01 2.071546215814587200e+00 1.042713544354573196e+00 -1.375500195779087775e+00 -3.767545759994721521e-01 3.167938742187022538e-01 -5.655846353033371354e-01 2.311874447254643195e-01 -6.441878934269743562e-01 1.075066252327978589e+00 -5.915450660687603390e-01 -3.212861060334341046e-01 -1.672394758325801423e+00 -7.614811151197992123e-01 7.046900695782699620e-01 7.144515206473008861e-01 6.192163090191209474e-01 -1.287922244218807633e+00 -6.482934312942841837e-01 6.574876969590512377e-02 1.275037416771264365e+00 -2.821564837873238862e-01 4.400633685936256589e-01 -3.978453369748872204e-01 -4.294457401011138598e-01 -3.269551832844291184e+00 9.708481197323591827e-01 4.130822097887973388e-01 -3.111513307545250573e-01 3.201748751552707106e-01 1.710409035928350141e+00 7.633863027197969053e-01 -1.329583889067452063e+00 -2.012909118050658197e+00 1.272439059701685991e-02 2.320264986004755059e+00 5.860053667395358490e-01 8.583875439409596186e-01 8.827523479525922756e-02 4.054979690567140915e-01 1.468971630492829750e+00 1.211844323828932701e+00 1.675889402031492503e+00 9.455386923411862599e-02 4.579412787931198547e-01 3.255685358128625195e-02 -7.919538323062698115e-01 1.896093607364688349e+00 8.643741010365534327e-01 -8.612059874593369635e-01 1.705155757514968673e-01 8.076298495764278051e-02 3.450112195256613834e-01 1.456283235343046156e+00 5.349190853638303711e-01 -1.850438524755832204e-01 8.153791551451100572e-01 -2.575247992454889334e-01 -3.151874488307417899e-01 9.797863035010943022e-01 2.074797633141115316e+00 -2.853888749488857068e-01 9.383097780953645328e-01 1.718547606547828233e+00 -4.144479799009685439e-01 -5.977630224679977289e-01 9.555572537475989225e-01 -4.471704125395286056e-01 1.031387833992912562e+00 -6.132081546551869655e-01 6.411884442310802346e-01 1.040428347675925291e+00 -1.195241680902851433e+00 -5.529173232012191130e-01 1.791428102782024911e+00 -1.113176174976033384e+00 -1.173596075819366646e+00 -3.173476898854222794e-01 -8.772897817245823848e-01 -3.191670026327347309e-01 2.143580304818123658e-02 6.787126695305795154e-01 8.729585009810513219e-01 -1.224119285556206416e+00 -6.677916508399575068e-01 -3.735304123687064881e-01 4.488899664759369301e-01 8.833683843209588771e-01 -2.247193199679546893e+00 -3.383165805609185117e-01 -2.078645032229693879e+00 3.060641456190920772e-03 7.793137738999141861e-01 -3.541496408251491257e+00 2.563391606356872909e+00 -1.012190433541975798e+00 -2.543215643961862060e+00 -1.153672081554989681e+00 -5.788139906029715620e-01 -1.330616444182376679e+00 -8.221920648650485886e-01 3.844725141069939289e-02 -5.329012834360593587e-01 4.965628510125639772e-01 -3.505565752823083248e-01 -2.330139565622234288e-02 -1.523484164224482740e+00 -1.044882527160724939e+00 -9.166148078271024735e-01 -8.287082692556485553e-01 2.341877680965055220e+00 7.199495681018696080e-01 3.741829584049810586e-01 3.856444230247793592e-01 5.398689735791013522e-01 -9.236138654313053031e-01 5.942611796728599627e-01 -4.050408268768495024e-01 -5.404104479496271152e-01 -7.872893365654923814e-01 1.380528245536922875e-02 -7.908647129171212375e-01 1.493331806518389593e+00 -6.797925329475823508e-01 3.650118326705782956e-01 -3.959344929474669650e-01 -1.126970658797232572e+00 -3.722484602265216935e-01 -4.428848974360516388e-01 -3.576389366358227462e-01 -2.033783906342672421e-01 -4.566685826230807432e-01 1.689076077015121413e-01 5.100467455462062150e-01 2.988650561724064472e-02 5.639247309652014595e-01 -1.291809752520017840e-01 -7.324986094487923038e-01 1.171004403618560064e+00 -1.042813303165477601e+00 1.036384516289587276e+00 -7.535430905634785681e-01 -2.242906656134719956e+00 -5.474275032774466032e-01 -1.300231658731290540e+00 2.715239428952439388e-02 8.937103905317974606e-01 1.166936403860507898e+00 4.099506058794891161e-01 4.893596478004803019e-01 -1.903044842446137919e+00 1.973085297893617251e-01 -2.190610413511296706e+00 2.954259482995897912e-01 4.139846670730069067e-01 3.696393045227728824e-01 -2.832481742798462210e-01 1.456941437806743254e-02 -1.056349648207945302e+00 -7.625342390617142474e-01 -1.216732505563232314e+00 -3.409298500300653734e-01 1.445560191612208056e+00 6.618642291219614116e-01 -1.195079701390300980e-01 1.390211535063389681e+00 7.811809091699795093e-01 -1.053973948690539064e+00 -4.720946886453037394e-01 -2.526729729128951440e+00 -5.287026716266172155e-01 -1.252710469293718543e+00 -1.788494473832500598e+00 -8.637986881014934060e-01 -6.014247878929869229e-01 -1.017565582255276074e-01 -1.912602662127962927e-01 8.433147075222988676e-01 -4.372948044807001278e-01 6.133284822930816782e-01 -9.829749859053011907e-01 1.302761624451125533e+00 -1.541971425923571504e+00 -4.519614065662979074e-01 1.307483712907476558e+00 1.287325748236081979e-01 1.337280744127308463e+00 -1.086440299433066997e-01 -1.020625195270117441e-02 -3.210187112825571565e-01 9.306910845780720365e-01 -4.711469799417150606e-01 1.865392061977947935e-01 2.255659843089523886e-01 1.284162776865613420e+00 1.594927413672716232e-01 -3.328930951041904063e-01 1.471406465387833595e+00 -4.805484765384118173e-01 2.465497873840167276e-01 -1.754577506566465384e-01 3.181359901798343492e-01 -1.771155981120833001e-01 -1.381448700544749275e-01 3.170612689695791464e-01 -5.761935220443781258e-01 6.702840784505349481e-01 3.587877056232438577e-01 1.289087468267821057e+00 5.458143930207142586e-02 2.645038022433758851e-01 9.283020153231219540e-02 1.561441363332133070e-01 -1.561992093674804405e+00 5.454991757470842861e-01 -4.614868303456124976e-01 5.191350817519719829e-01 -7.779968547518454347e-01 -1.296344664650754819e+00 3.615953505074512297e-01 5.897771753889242685e-01 3.891879176945729490e-01 -1.076311694802255303e+00 6.364925810291420794e-01 -4.906606261076312814e-01 -6.253072529116918687e-01 -1.530209656429711407e+00 4.272366480823308610e-01 1.242244021679587140e+00 -1.097000335210005284e+00 5.741294402558783094e-01 -4.755615644345576737e-02 2.131400988136355590e+00 -6.764727242713108879e-01 1.877138919072240064e+00 -1.076290611754590065e+00 -1.956207546906537864e+00 1.342169440082282783e+00 7.713268983794911993e-01 -8.146721017173106372e-01 -1.019084075907852105e+00 6.506696450323652403e-01 6.996897877368719876e-02 3.026970286407422717e-01 1.120351096051005024e+00 9.082895751026853759e-01 -5.649783691277913134e-01 -5.969536391259203101e-02 5.690957340706207512e-01 1.793348202781591016e+00 5.811105001364644251e-02 7.144268380549122499e-01 9.295258605290585008e-02 -7.307070646179170126e-01 2.014806078119859567e+00 6.873171240813932270e-01 3.332031701710726490e-01 -5.546579601852927865e-01 -3.483429581215874649e+00 1.897880524209490938e-01 7.631178795275705973e-01 9.374592570993059981e-01 -7.406351231855713424e-01 -1.025041836645659066e+00 -2.999906852294632609e-01 4.183750831941356052e-02 -1.367155422669029674e+00 1.503587423655867950e+00 2.046763350394372072e+00 9.824463670516446756e-01 4.073795025056728414e-01 -2.106839237606288884e-01 -2.697375402711163495e-01 1.522146162028748861e+00 -6.064009013626709965e-01 -1.782988198847135497e-01 2.476355643387793126e+00 -1.511949680268868335e+00 1.773728627156673676e+00 6.656890025008505019e-01 2.186991328402312806e+00 -1.020521322693815236e+00 -2.182869849694085485e+00 8.263120009112517872e-01 3.167213691035606349e-01 5.039259768544990942e-02 -5.824603294077179694e-01 8.500905933536543335e-01 1.659117066282739250e+00 -3.404377408443169384e-01 -1.309353419280915753e+00 -2.054309024575847964e+00 1.495997012275687377e+00 6.907618883816323274e-01 1.711830856094070707e+00 -8.090295582531333851e-01 -1.141124582870091109e+00 1.819333316139402912e-01 1.140411358794194641e+00 -1.526464073034735858e+00 4.057813046485085340e-01 -1.945307097042906275e+00 -2.254579979672521051e-01 1.536794766390729983e-01 6.786705034352489285e-01 -8.982571297380541608e-01 -8.283863671132467577e-01 3.134828072939015997e-01 3.242711570504348551e-01 2.213332796687735637e+00 1.105267460998174522e+00 1.524628305225831093e-01 2.933474683321966592e-01 -1.102143570398987471e+00 1.459990766408089335e+00 -1.954465367260439790e-01 2.554082669481633899e-02 -3.890459927883383462e-01 5.619064148167557393e-01 -6.406783373217150857e-01 -2.133567914059808057e+00 -8.976153823359497297e-01 3.985786156570996774e-01 5.035871054298300953e-01 1.075306393383093084e+00 1.761320996495310931e+00 8.298966332350264929e-01 -4.987117792123996196e-01 -1.392634542882874360e+00 -5.179436324485454657e-01 1.010912595165188943e+00 -5.367795357651236610e-02 9.382048770777128288e-01 3.472326528406386448e-01 -3.506882157750477735e-01 -6.144381705092207824e-01 3.211503517752965498e-01 1.763545515134336827e-01 1.208201070348234873e+00 -1.569916748493580982e+00 -7.926423737897778654e-01 1.933351466354660264e-01 -1.365862671892675018e-01 -3.482322978323784124e-01 -3.952660060702747891e-02 3.787147852116696800e-01 1.045348925312735017e-01 6.961468072877531610e-02 4.161634200719788179e-01 -1.824595336304255078e+00 7.264020091287990422e-01 -1.824007582073000899e-01 3.990825519183676673e-01 -9.083193999018216933e-03 -1.048490813635538643e-01 -1.421077116845379518e+00 1.704687816700934111e-01 1.551669113628932006e+00 1.224127513087002628e+00 -7.985965349828616500e-01 4.320795783972512516e-01 -2.950937617436926730e-01 4.578636314712306032e-01 1.312838292793786499e+00 -3.432998931200492154e-01 -4.948083300702716958e-01 5.210222716283531286e-01 -1.413284102519342562e-02 3.316389108784427719e-01 -2.162534478889897582e-01 -1.044369334927311099e+00 2.197172383541950713e-01 1.655278408945631607e+00 1.168320171696295873e+00 1.225426434511454721e+00 -7.372608071177747524e-01 -1.397343261601681659e-02 6.512435153054010328e-01 6.103593721169985331e-01 1.100293404411189224e-01 -1.974872214738419673e+00 -1.294268755786735614e+00 -8.887337628414385682e-01 -1.234459749105020876e+00 1.548352904497383609e+00 4.069557846696679748e-01 -5.715362253930471592e-01 4.113863100034281794e-01 -5.334412151445607764e-01 -8.144741267575267285e-01 9.399547700339322409e-01 -2.195048652155178470e-01 -3.073445550992525699e-01 -5.792073694191653965e-01 5.115169024553543053e-01 2.661148556174092183e-01 1.326722765233069312e+00 4.258827050456792662e-01 -7.861446813434693759e-01 -1.609542593690837631e+00 -6.245246090447020837e-01 -8.167824633665391465e-01 8.776019136741636251e-01 -1.751528177965119559e-01 1.205374399299061483e-01 -2.856146178251067758e-01 4.404675460439895773e-01 -6.963962043150133674e-01 4.860588652891748573e-01 -3.492576538578563983e-01 -8.190969706236485015e-01 1.267755023575267259e+00 -4.656216787913838862e-01 -3.401554336938719114e-01 -5.678189241351835337e-01 -6.611150095988312936e-01 -1.146897224164983436e-01 -7.150793840911867649e-01 4.524000368018709639e-01 -2.087093163695379616e-01 1.448812123159410881e+00 3.700856480684673877e-01 1.484508808180801664e-01 -3.296313933641670246e-01 1.297597820435153038e+00 2.970226034947296978e-01 8.653922579725846775e-01 2.211025488520072801e-01 -6.889867986123494603e-01 -9.859847195146906884e-01 -3.330499324099931435e-01 -6.387237845369398981e-01 -2.426144565600535027e-02 5.596885810465017652e-01 -7.692211647163356147e-01 -4.159834428358117342e-01 3.287639030858414135e-01 -5.219684376699176287e-01 -7.151678300472461003e-02 -8.026938453193752654e-01 1.701216827146281863e-01 -1.627138196739886800e-01 1.604764455180937577e-01 1.290740173516510270e-01 3.710719233226632968e-02 -2.761091458079730110e+00 -8.021019773227227034e-01 -9.657902451753878070e-01 -1.897679978146332991e-01 1.704158683626602722e+00 7.440310365217078781e-02 -2.498587974261182731e-01 4.553640047712063099e-01 1.517660100862114447e+00 1.097925418203904435e+00 -5.498613097311010750e-02 -1.744837138545099808e+00 2.422750709147097892e-01 1.624289414201698645e-01 -2.584436087471559951e+00 -1.165900763421534592e+00 -7.939742053374146957e-01 3.976591890906229221e-01 -5.301975111281539976e-02 -8.217143538581934692e-01 -1.621795443929096581e-01 8.674378278167930167e-01 9.716081378896593845e-01 -1.553316676670873642e-01 1.709888644605489505e+00 6.947995491198734330e-02 -6.589249437450145352e-01 3.933309936711406052e-01 1.047837753378589032e-01 9.209558587634540938e-01 -2.954249198582402022e-02 -6.835350310185094314e-01 2.290174334779633558e-01 2.488576097723542158e-01 -5.256363737430038915e-03 2.738502772278729180e-01 -3.173353485892279613e-01 8.553803814349441037e-01 -4.140520299814008931e-01 -3.583675873319622784e-01 -4.847835980157619296e-01 2.029104498202326801e-01 -7.187282939993068220e-01 -9.176612469002458639e-01 1.389317305309976547e+00 -5.404233034664962521e-01 -1.443468856127945843e+00 -3.721487014156176221e-01 -1.615964181477281270e-01 -1.996430916527869304e-01 -1.035608043070694650e+00 3.341457366679136815e-02 5.676636294914051001e-02 -1.079811994935368606e-02 1.351820847926914260e+00 -2.118640602092105446e-02 -1.415814068239177992e+00 -3.017359501996097482e-01 6.811485328669331096e-01 8.105665638500009207e-01 -1.589746640374476438e+00 3.314877300000623750e-01 -5.298154451668048992e-01 -8.660951976349861026e-01 -6.110653971034485377e-01 -9.167207372861038150e-01 -7.984489536492045403e-01 -1.038622918886831538e-02 -1.777357482458477855e-01 1.611588163535045748e+00 3.875629803623210634e-01 1.521831458975793749e+00 -1.388065692187602673e+00 9.285462701436344446e-01 -5.193726517037127177e-01 6.117482821595340292e-01 4.348373438760065879e-01 7.261978635209180577e-02 -1.455292332102777308e+00 -3.551629640868376181e-01 7.518965559628866258e-01 1.197607610227437114e+00 3.680945856157841201e-01 2.302541342007690117e-01 2.122543537013558690e-01 1.237990388257945495e+00 -2.881590331459028764e+00 2.454450871084227881e+00 -2.110464493363369554e-01 -3.652422035328722338e-01 1.203177648576472913e+00 -3.705397049242833418e-01 -3.534737491702403256e-01 7.302725481477421177e-01 -8.169938080638667888e-01 -9.300657922375599185e-02 4.791184288418951498e-01 7.136920167106755586e-02 5.962234457677565436e-01 -2.133384337278917631e+00 1.569257003367859671e+00 -1.927773200474828252e+00 6.618277194540531649e-01 2.289238453151564712e-01 6.491023004156868392e-01 1.886320843440812689e-01 -7.098096506162128450e-02 -7.599554223777764683e-01 -1.553995447961561138e-01 1.127478708823898446e+00 -8.596838942620379509e-01 1.583495773852054311e+00 -7.363933168394491968e-01 -3.665498667087952467e-01 1.186879424289851270e+00 2.179395774815384712e-01 4.492643191271646075e-02 3.934986296111133708e-01 1.241631070635269340e+00 -3.299244991487820799e-01 2.510821284113800567e-01 8.549072984141618814e-02 2.804096761551530537e-02 -4.871418140302263139e-02 1.107806682690155142e+00 2.280702389950494402e-01 3.426838567516828360e-01 1.686489547021062241e-01 1.139218881049418597e+00 2.296591808800679257e-01 -1.033064193392640995e+00 9.892042551593833721e-01 1.128508692835449440e-01 -4.828979508014051292e-01 -1.055949584522979601e+00 8.866218585301858246e-01 4.474115820359925721e-01 2.951467264731933438e-01 -9.089364647115376339e-02 -2.021504316629326170e-01 -1.625035034180105087e-01 -4.666892009121924034e-01 -1.079579567190375622e+00 1.331965245012280696e-01 4.316383770583043789e-01 -8.021667691277429846e-01 3.412975178125211007e-01 1.718823743050175989e-01 1.823066558238183865e-01 1.039322773225184404e+00 1.022436794707308305e+00 2.302032263539674495e-01 2.087473686994704425e-01 -2.943116320973778177e-01 9.966455425438823790e-01 -4.066673068711256778e-01 6.871803413819062012e-01 -1.282893166019622722e-01 6.754355411703133472e-01 -1.962399792272036814e-01 1.383576545696919569e+00 6.387700643976686188e-02 -6.152449827479242739e-01 -3.592577033199774728e-01 -2.611330857203027489e-01 -9.897832676391666862e-01 -3.782123916124259799e-01 2.165894910999475620e+00 1.136376269159327101e-01 9.841016434037074267e-01 -3.173734009191604422e-01 1.520103163287914283e+00 -7.465589453588440394e-01 5.834805432264481562e-01 2.439154348672045378e-02 -7.084269112217744802e-01 3.189849685138685387e-01 4.565585393986814622e-01 -2.959052019684691448e-01 5.521495917337976289e-01 1.813867150366669512e-01 1.225732395812938885e-01 -1.050725102467384930e+00 -5.833298765687425780e-01 -5.585464969278525205e-01 7.487412979025391824e-01 -1.279175350541084388e-01 2.815815850729385672e-01 4.011692594165569559e-02 2.075347849263112110e+00 5.728264050660281798e-02 -1.977913830029644493e-01 -3.821878316490207039e-01 -2.183843783652086867e-01 2.059649206283264533e+00 -1.370371872989673889e+00 2.708442974294093641e+00 -9.043084786386682006e-02 1.012112786220086491e+00 5.801283386476665527e-01 1.099479393083039103e+00 4.999299679909137151e-01 4.396195961513048589e-01 -8.699893908049681490e-02 -7.597816157897065159e-02 -1.565066619089214017e-01 3.466603252296271420e-01 6.531960112074770564e-01 6.870013925870884774e-01 4.750231753880805874e-01 -1.439694476375183441e-01 -2.446718020577137942e+00 -6.047250561836174931e-01 7.124542875465205150e-01 8.223118782822683714e-01 1.621820640742160036e+00 -6.120141342483866875e-01 -2.250929012881701941e-01 2.174947765978682557e-01 -9.795538757561012000e-01 -6.501446257234319015e-01 3.702080325890610979e-02 3.806863072787119995e-01 -1.567082878354960629e+00 -2.740580223804773286e-01 6.180469712047091946e-01 -1.471950510861733008e+00 3.881219382357887770e-01 7.396858718199583738e-01 7.442171844059721764e-01 -2.810657188920160365e+00 -2.068180641498261974e+00 2.260292457148465939e+00 -7.260487395252367138e-02 -6.814915180570002562e-02 2.189505353281230582e-01 1.054153925926706314e+00 3.358056410060494823e-01 4.376671002492287799e-01 4.304078469835958543e-01 -1.265990732440154531e-01 4.339503132120400286e-01 7.985255725297443208e-01 8.967859443875565439e-01 6.375580462672516546e-01 6.497944414439181804e-01 5.004117927631670515e-01 5.284764145297213833e-01 -8.015455905526289726e-01 -1.528335836290874161e-01 -7.197299958737457537e-01 -1.000891976876077338e+00 -2.202689971382160439e-01 4.593255608495825371e-01 -3.463425368526234505e-01 5.658453451854421612e-01 6.912668530842497848e-03 -6.941788847654342121e-01 7.726340473347393933e-01 9.398694094019215406e-01 -5.694423188054111851e-01 -1.392386174296963708e-01 2.569406445589578897e-02 5.124928932960549910e-02 -1.126708920473778047e-01 3.161156171486895206e-01 1.682321274231431296e+00 -3.445381365048791888e-01 -1.478153040640727722e+00 -9.435959666319309047e-01 -1.157133300916820984e+00 -5.317401731524438319e-02 -8.383977294302127348e-01 -5.533451548026221412e-01 -3.578718786014905007e-01 -1.483120412358940876e-01 -1.679028205030247411e-01 3.742786034504870241e-01 6.201496195438161996e-01 -9.551083390985307120e-02 6.511067326059138960e-01 -1.886178918534577864e+00 3.242721854917843816e-01 -2.062961301649414825e+00 -1.123196793265144877e-01 6.849805053352688855e-01 -5.113343541158134054e-01 6.271964996707719564e-01 2.086568658607120819e-01 2.699026051077153543e-01 -5.857796238633147801e-02 -1.055525866686974679e+00 -1.206079910064836502e+00 1.082496741078307734e+00 1.613036723175854004e+00 3.669005652089838421e-01 -2.292123231136986294e-01 -8.637328678551237093e-01 5.368762092519792084e-01 -3.006132007783315796e+00 2.408542791903388047e-01 -1.269286886965387273e-01 -3.398006214282852100e-01 5.763267051991417533e-01 1.678990666920989749e+00 1.292335286049625775e+00 -7.602526419277897407e-01 2.032431505968045060e-01 -1.441164119063656823e+00 -4.290348777819779497e-02 -6.837268353301961810e-01 2.976041870778869392e-01 -7.441323379946362948e-01 -1.200798349514343277e+00 1.186063870299676859e+00 5.643206808847691658e-01 5.699493403907278655e-01 -3.964410003121087711e-01 2.332720953409545828e-01 -3.255469385445224351e-01 -4.215066871034438972e-03 1.051789025043470271e+00 -1.458651735771006042e+00 -2.737322635830147455e+00 5.003752830952586939e-01 4.355449115244808267e-02 1.214022048386555142e+00 -6.561964888447207045e-01 -6.549988688931970282e-01 8.401543072552039582e-02 7.904029427511838346e-01 -7.454096621507481091e-01 -1.326329386416875283e-02 -8.977974164548158109e-01 -7.812487862990483700e-01 6.124105983886291016e-01 -8.803231694850107703e-01 -9.375862696059725776e-01 -4.488123191540476786e-01 5.798460314972215812e-01 -1.130843768919549408e+00 5.941562786552082587e-01 -3.767674315163412335e-01 -9.922582117468022878e-01