1.212027600000000049e+01 5.959246000000000265e+00 8.389685999999999311e+00 1.007537600000000033e+01 1.204627600000000065e+01 1.020747599999999977e+01 1.118807600000000058e+01 6.344776000000000415e+00 1.543227599999999988e+01 1.006837600000000066e+01 4.722375999999999685e+00 9.905476000000000170e+00 8.419966000000000506e+00 1.067137600000000042e+01 4.734285999999999994e+00 1.173637599999999992e+01 1.544817600000000013e+01 3.777266000000000012e+00 1.190867599999999982e+01 2.408106000000000080e+00 1.547917600000000071e+01 8.578226000000000795e+00 1.654085999999999945e+00 5.638715999999999617e+00 8.530025999999999442e+00 4.770955999999999975e+00 6.607065999999999661e+00 5.562275999999999776e+00 1.318057600000000029e+01 4.759185999999999694e+00 1.474237600000000015e+01 3.136105999999999838e+00 4.963676000000000421e+00 4.838649999999999896e-01 1.024117599999999939e+01 1.276147600000000004e+01 2.504026000000000085e+00 4.649046000000000234e+00 3.549945999999999824e+00 4.830195999999999934e+00 5.531059999999999865e-01 1.460857599999999934e+01 9.685059999999999780e-01 5.882515999999999856e+00 1.955726000000000075e+00 2.800546000000000202e+00 1.375995999999999997e+00 7.097286000000000428e+00 1.340347599999999950e+01 1.467427600000000076e+01 7.497346000000000288e+00 1.724289999999999989e-01 2.316806000000000143e+00 1.515397600000000011e+01 8.089939999999999909e-01 1.558537600000000012e+01 1.120717600000000047e+01 5.673206000000000415e+00 1.078757599999999961e+01 5.111525999999999570e+00 8.746760000000000090e-01 8.613125999999999394e+00 7.823465999999999809e+00 7.885206000000000159e+00 3.031356000000000162e+00 3.234856000000000176e+00 1.382276000000000060e+00 1.426419999999999910e-01 2.671186000000000060e+00 1.501717599999999919e+01 1.208396000000000026e+00 1.480305999999999900e+00 1.184167599999999965e+01 6.413585999999999565e+00 1.199247599999999991e+01 1.377087599999999945e+01 7.041795999999999722e+00 6.290846000000000160e+00 5.597885999999999918e+00 1.468567600000000084e+01 3.045316000000000134e+00 1.213807599999999987e+01 3.323106000000000115e+00 5.474715999999999916e+00 5.481875999999999749e+00 4.739726000000000106e+00 8.021126000000000644e+00 8.131425999999999377e+00 1.247037599999999991e+01 1.556247600000000020e+01 8.793616000000000099e+00 4.685386000000000273e+00 1.500706000000000095e+00 1.253877600000000037e+01 9.999475999999999587e+00 1.527947600000000072e+01 5.831786000000000136e+00 1.372287599999999941e+01 1.499817600000000084e+01 4.159886000000000195e+00 7.678665999999999769e+00 5.977365999999999957e+00 9.024886000000000408e+00 1.057307600000000036e+01 1.211386000000000074e+00 1.508897600000000061e+01 5.102905999999999942e+00 9.603676000000000101e+00 1.373307600000000050e+01 9.352059999999999818e-01 3.789016000000000162e+00 4.741196000000000410e+00 1.158347599999999922e+01 1.162517599999999973e+01 4.062056000000000111e+00 5.615185999999999567e+00 1.248007600000000039e+01 2.420506000000000046e+00 1.192657600000000073e+01 1.263457599999999914e+01 1.553967600000000004e+01 5.167755999999999794e+00 6.262275999999999954e+00 3.175680000000000169e-01 1.498827600000000082e+01 1.389477600000000024e+01 8.427046000000000703e+00 1.329357599999999984e+01 1.160857599999999934e+01 1.104605999999999977e+00 1.027395999999999976e+00 5.174896000000000384e+00 1.399517600000000073e+01 4.906445999999999863e+00 1.206567599999999985e+01 1.912776000000000032e+00 8.171659999999999480e-01 1.497867600000000010e+01 1.257107599999999969e+01 1.013267600000000002e+01 7.404676000000000258e+00 6.635746000000000144e+00 2.157146000000000008e+00 1.416567599999999949e+01 9.175506000000000384e+00 6.168885999999999648e+00 1.141737600000000086e+01 1.216077600000000025e+01 4.396416000000000324e+00 1.136965999999999921e+00 1.329177600000000048e+01 8.042085999999999402e+00 3.487426000000000137e+00 7.888906000000000418e+00 1.314826000000000050e+00 9.900575999999999155e+00 1.462287599999999976e+01 1.323627600000000015e+01 1.523557600000000001e+01 3.172165999999999819e+00 5.708286000000000193e+00 1.460865999999999998e+00 4.837506000000000306e+00 1.004547600000000074e+01 9.572746000000000421e+00 1.097297599999999917e+01 1.843075999999999937e+00 1.419637600000000077e+01 2.519715999999999845e+00 4.324939999999999896e-01 9.669565999999999661e+00 3.731285999999999881e+00 4.762436000000000114e+00 9.916076000000000334e+00 1.474727599999999939e+01 8.680296000000000234e+00 1.456117599999999968e+01 1.142047600000000074e+01 6.126365999999999978e+00 2.829886000000000124e+00 4.560065999999999953e+00 5.278065999999999924e+00 1.485057600000000022e+01 1.018897600000000025e+01 1.117317599999999977e+01 3.052585999999999800e+00 7.276285999999999810e+00 6.744226000000000276e+00 7.260845999999999911e+00 1.524337599999999959e+01 4.563596000000000430e+00 1.418767599999999973e+01 1.268087599999999959e+01 1.086217599999999983e+01 3.276116000000000028e+00 9.087115999999999971e+00 9.648560000000000469e-01 1.439757600000000082e+01 3.208235999999999866e+00 1.385097599999999929e+01 2.298655999999999811e+00 6.718726000000000198e+00 4.457836000000000354e+00 1.448217600000000083e+01 1.816116000000000064e+00 5.831465999999999816e+00 9.494436000000000320e+00 1.298697600000000030e+01 3.987715999999999816e+00 8.817066000000000514e+00 1.091027599999999964e+01 1.814545999999999992e+00 7.238705999999999641e+00 9.324465999999999255e+00 1.422567599999999999e+01 1.518577600000000061e+01 9.318585999999999814e+00 1.539407600000000009e+01 1.919205999999999968e+00 1.186807600000000029e+01 8.458455999999999975e+00 6.263136000000000259e+00 1.003767599999999938e+01 5.188865999999999978e+00 4.837066000000000088e+00 1.350777599999999978e+01 1.185497600000000062e+01 1.244266000000000094e+00 5.363095999999999641e+00 8.037886000000000308e+00 1.331267599999999973e+01 1.057077600000000039e+01 9.203696000000000765e+00 1.216417599999999943e+01 1.491667600000000071e+01 8.963926000000000727e+00 1.136087599999999931e+01 4.065226000000000006e+00 3.158075999999999883e+00 7.139745999999999704e+00 5.595075999999999716e+00 8.748405999999999239e+00 7.609975999999999630e+00 1.204647600000000018e+01 1.258587600000000073e+01 8.258836000000000510e+00 9.285956000000000543e+00 9.494445999999999941e+00 6.691755999999999815e+00 1.236347600000000035e+01 9.494545999999999708e+00 1.225357600000000069e+01 3.391795999999999811e+00 1.297647599999999990e+01 6.279895999999999923e+00 6.124976000000000198e+00 9.624916000000000693e+00 1.423077600000000054e+01 3.416846000000000050e+00 1.298867599999999989e+01 1.447367599999999932e+01 8.497016000000000346e+00 8.246826000000000434e+00 1.133427599999999913e+01 2.096506000000000203e+00 4.282595999999999847e+00 6.168225999999999765e+00 7.265685999999999645e+00 1.084076000000000040e+00 2.541796000000000166e+00 2.836396000000000139e+00 8.350265999999999522e+00 9.614496000000000819e+00 1.121587599999999973e+01 2.405126000000000097e+00 9.137435999999999225e+00 1.548687600000000053e+01 1.492927599999999977e+01 8.691416000000000253e+00 8.220026000000000721e+00 1.564797599999999989e+01 1.092267599999999916e+01 1.354087600000000080e+01 8.241756000000000526e+00 9.256396000000000512e+00 3.220445999999999920e+00 1.060297599999999996e+01 5.002206000000000152e+00 2.211106000000000016e+00 1.119647600000000054e+01 2.411516000000000215e+00 8.905775999999999470e+00 5.197175999999999796e+00 1.532357599999999920e+01 6.752845999999999904e+00 1.146577599999999997e+01 1.272687600000000074e+01 1.554797600000000024e+01 6.544755999999999574e+00 1.556747599999999920e+01 7.984026000000000067e+00 2.672935999999999979e+00 7.488156000000000034e+00 2.301676000000000055e+00 1.400577599999999912e+01 8.297226000000000212e+00 1.267036000000000051e+00 1.215447600000000072e+01 3.523699999999999749e-02 1.060937599999999925e+01 8.704316000000000386e+00 1.567077600000000004e+01 1.354217599999999955e+01 1.470747599999999977e+01 5.283045999999999687e+00 9.326185999999999865e+00 9.447046000000000276e+00 9.341416000000000608e+00 1.280777600000000049e+01 1.159017599999999959e+01 7.774346000000000423e+00 2.028576000000000157e+00 5.599579999999999558e-01 1.090907600000000066e+01 1.214667599999999936e+01 2.411986000000000185e+00 1.386617599999999939e+01 1.245327600000000068e+01 3.135565999999999853e+00 8.404329999999999856e-01 2.184235999999999844e+00 6.708236000000000310e+00 1.711095999999999950e+00 8.257695999999999259e+00 4.182065999999999839e+00 2.757766000000000162e+00 5.728560000000000318e-01 5.880980000000000096e-01 1.896925999999999890e+00 3.336176000000000030e+00 1.130107600000000012e+01 1.158077600000000018e+01 9.240716000000000818e+00 1.076337599999999917e+01 9.871475999999999473e+00 5.171996000000000038e+00 1.819166000000000061e+00 1.423557600000000001e+01 1.443817600000000034e+01 4.116615999999999609e+00 1.309197600000000072e+01 2.323496000000000006e+00 1.471927600000000069e+01 1.965735999999999928e+00 1.077506000000000075e+00 4.756935999999999609e+00 2.937816000000000205e+00 9.561595999999999762e+00 1.437497600000000020e+01 8.130739999999999634e-01 1.432357599999999920e+01 1.544927599999999934e+01 8.085746000000000322e+00 1.563207599999999964e+01 1.260737600000000036e+01 1.122999999999999970e-01 7.682045999999999708e+00 1.374586000000000086e+00 1.430997600000000070e+01 1.520057599999999987e+01 7.982295999999999836e+00 1.548737599999999937e+01 7.433276000000000217e+00 2.296225999999999878e+00 8.759145999999999432e+00 5.372615999999999836e+00 1.506057599999999930e+01 1.503537599999999941e+01 8.473836000000000368e+00 7.132819999999999716e-01 1.986045999999999978e+00 9.275766000000000844e+00 1.274667600000000078e+01 1.498457600000000056e+01 4.369536000000000087e+00 9.938675999999999178e+00 4.934505999999999837e+00 2.701605999999999952e+00 1.108746000000000009e+00 8.466756000000000171e+00 1.154337600000000030e+01 7.761125999999999969e+00 1.556727599999999967e+01 1.089057599999999937e+01 1.259827600000000025e+01 9.415775999999999257e+00 9.626345999999999847e+00 9.569295999999999580e+00 7.979105999999999810e+00 9.899976000000000553e+00 6.238565999999999612e+00 1.480647599999999997e+01 1.460687599999999975e+01 8.101556000000000424e+00 1.032017600000000002e+01 8.304256000000000526e+00 1.609939999999999982e-01 9.571146000000000598e+00 2.875345999999999957e+00 1.287307599999999930e+01 7.657685999999999993e+00 8.376485999999999876e+00 5.939166000000000167e+00 1.240245999999999960e+00 1.115737599999999929e+01 9.835876000000000730e+00 1.513577599999999990e+01 2.985846000000000000e+00 1.310977600000000010e+01 1.322687600000000074e+01 6.021796000000000149e+00 9.789426000000000627e+00 8.494075999999999738e+00 2.331646000000000107e+00 7.152155999999999736e+00 9.814845999999999293e+00 6.820996000000000059e+00 8.136126000000000857e+00 7.198756000000000377e+00 9.904875999999999792e+00 1.542566000000000104e+00 6.348556000000000310e+00 1.061367599999999989e+01 1.555897599999999947e+01 2.668766000000000194e+00 1.258757600000000032e+01 9.606256000000000128e+00 6.020996000000000237e+00 1.552547599999999939e+01 1.496717600000000026e+01 1.008057600000000065e+01 1.082017600000000002e+01 1.190085999999999977e+00 8.457836000000000354e+00 9.089166000000000523e+00 9.074066000000000187e+00 1.115776000000000101e+00 1.288957599999999992e+01 9.318526000000000309e+00 3.255225999999999953e+00 1.149527600000000049e+01 1.120767599999999931e+01 3.617395999999999834e+00 1.126677600000000012e+01 4.479826000000000086e+00 5.080035999999999774e+00 1.326457599999999992e+01 3.065285999999999955e+00 4.781456000000000373e+00 3.149339999999999917e-01 1.564957599999999971e+01 1.259437600000000046e+01 1.197327600000000025e+01 2.570246000000000031e+00 6.844345999999999819e+00 4.451296000000000141e+00 7.050805999999999685e+00 1.257027599999999978e+01 1.399915999999999938e+00 1.118847599999999964e+01 1.214045999999999959e+00 2.013635999999999981e+00 9.044556000000000040e+00 8.529745999999999384e+00 1.003055999999999948e+00 1.539307600000000065e+01 1.509017599999999959e+01 1.433827600000000047e+01 7.816696000000000311e+00 4.580225999999999686e+00 1.057937599999999989e+01 8.415535999999999461e+00 6.345956000000000152e+00 8.137036000000000158e+00 6.855675999999999881e+00 1.153717600000000054e+01 1.361357600000000012e+01 1.159937599999999946e+01 2.586095999999999950e+00 1.819175999999999904e+00 8.908660000000000467e-01 6.241996000000000322e+00 1.451957600000000070e+01 4.515215999999999674e+00 8.503196000000000865e+00 1.475047600000000081e+01 1.420217599999999969e+01 1.386787600000000076e+01 3.714976000000000056e+00 4.970746000000000109e+00 1.129917599999999922e+01 7.491545999999999594e+00 1.253197600000000023e+01 1.222327600000000025e+01 9.047926000000000357e+00 5.129745999999999917e+00 1.057097599999999993e+01 9.601245999999999725e+00 1.964035999999999893e+00 1.365397600000000011e+01 1.003697599999999923e+01 1.143287600000000026e+01 1.717386000000000079e+00 8.764105999999999952e+00 4.765685999999999645e+00 5.334565999999999697e+00 6.852205999999999797e+00 2.258395999999999848e+00 2.933246000000000020e+00 1.282127599999999923e+01 7.005916000000000032e+00 9.145815999999999946e+00 6.567216000000000165e+00 3.426346000000000114e+00 1.364847600000000050e+01 3.721636000000000166e+00 5.895436000000000121e+00 1.264859999999999873e-01 4.272785999999999973e+00 8.247265999999999764e+00 7.207676000000000194e+00 1.549276000000000098e+00 2.108216000000000090e+00 1.563257600000000025e+01 7.904125999999999763e+00 1.147457600000000078e+01 9.100759999999999961e-01 1.549097599999999986e+01 8.877065999999999235e+00 7.266446000000000183e+00 8.778155999999999182e+00 3.808336000000000165e+00 7.784576000000000384e+00 3.594775999999999971e+00 4.746955999999999953e+00 2.510565999999999853e+00 8.860115999999999659e+00 2.354146000000000072e+00 4.262366000000000099e+00 1.490677600000000069e+01 1.771576000000000040e+00 2.885469999999999979e-01 6.598836000000000368e+00 8.485226000000000823e+00 1.343387599999999971e+01 3.844475999999999782e+00 1.893936000000000064e+00 6.611176000000000386e+00 2.978396000000000043e+00 4.103525999999999563e+00 7.105896000000000434e+00 2.436846000000000068e+00 1.238897599999999954e+01 1.530517599999999945e+01 1.368647600000000075e+01 1.327797600000000067e+01 6.468599999999999905e-01 3.281705999999999790e+00 5.209970000000000434e-01 1.495967599999999997e+01 1.229267600000000016e+01 1.103485999999999967e+00 3.880166000000000004e+00 1.464267599999999980e+01 6.137915999999999705e+00 6.671056000000000097e+00 1.207917600000000036e+01 5.012646000000000157e+00 2.423995999999999817e+00 1.112019999999999953e-01 9.982575999999999894e+00 1.149177599999999977e+01 4.516195999999999877e+00 1.479037600000000019e+01 2.286966000000000054e+00 1.376497600000000077e+01 9.380656000000000105e+00 1.194787600000000083e+01 1.038137599999999949e+01 3.169335999999999931e+00 9.938976000000000255e+00 5.521595999999999727e+00 1.194237599999999944e+01 1.257837600000000045e+01 8.388555999999999457e+00 1.475097599999999964e+01 1.188677599999999934e+01 1.498487599999999986e+01 4.476496000000000031e+00 5.293995999999999924e+00 1.558637599999999956e+01 5.936766000000000432e+00 1.423867599999999989e+01 4.233386000000000315e+00 1.368987599999999993e+01 5.564035999999999760e+00 1.309917599999999993e+01 1.088057599999999958e+01 5.208369999999999944e-01 1.624916000000000027e+00 1.098127599999999937e+01 1.320147599999999954e+01 7.324805999999999706e+00 1.776256000000000057e+00 6.192686000000000135e+00 1.218477599999999939e+01 5.274376000000000175e+00 1.791799999999999990e-02 3.872295999999999960e+00 4.971676000000000428e+00 1.368047600000000052e+01 4.681455999999999840e+00 8.948116000000000625e+00 1.414447599999999916e+01 8.706996000000000180e+00 8.390266000000000446e+00 1.000337599999999938e+01 9.161566000000000543e+00 9.131916000000000366e+00 1.219037600000000054e+01 8.132545999999999609e+00 5.062535999999999703e+00 1.421977599999999953e+01 4.600126000000000381e+00 1.322827599999999926e+01 1.488507599999999975e+01 1.027467599999999948e+01 5.987665999999999933e+00 3.694576000000000082e+00 8.430775999999999826e+00 6.078916000000000430e+00 7.463205999999999563e+00 5.485325999999999702e+00 3.747186000000000128e+00 7.102305999999999564e+00 5.934946000000000055e+00 1.204247600000000062e+01 5.409665999999999642e+00 9.292716000000000420e+00 1.055647599999999997e+01 5.888685999999999865e+00 1.144277600000000028e+01 8.126286000000000342e+00 1.205247600000000041e+01 1.464657599999999960e+01 5.082825999999999844e+00 1.091897600000000068e+01 1.224947599999999959e+01 1.408707599999999971e+01 8.257796000000000802e+00 6.574726000000000070e+00 1.562287599999999976e+01 2.452316000000000162e+00 1.168150000000000022e-01 9.773286000000000584e+00 1.397107600000000005e+01 1.558267599999999931e+01 1.817755999999999927e+00 5.019975999999999772e+00 1.249197599999999930e+01 7.286865999999999843e+00 6.716225999999999807e+00 1.439977599999999924e+01 1.563547600000000060e+01 4.751616000000000284e+00 9.189705999999999264e+00 3.886805999999999983e+00 5.421880000000000033e-01 1.278617599999999932e+01 9.159216000000000690e+00 8.714366000000000057e+00 1.402096000000000009e+00 5.826240000000000308e-01 3.990095999999999865e+00 8.941026000000000806e+00 1.143447600000000008e+01 3.765055999999999958e+00 1.539737599999999951e+01 5.959056000000000353e+00 1.062475999999999976e+00 7.567160000000000553e-01 1.413817599999999963e+01 8.095395999999999148e+00 1.345617599999999925e+01 8.990095999999999421e+00 1.468727600000000066e+01 2.592875999999999959e+00 4.436005999999999894e+00 9.640465999999999980e+00 6.876056000000000168e+00 1.307907600000000059e+01 1.530217599999999933e+01 5.407356000000000051e+00 1.099477599999999988e+01 1.043457599999999985e+01 1.108317599999999992e+01 1.445826000000000056e+00 1.566344400000000014e+01 9.186626000000000403e+00 1.524107599999999962e+01 1.423687600000000053e+01 1.385826000000000002e+00 5.338155999999999679e+00 6.465125999999999706e+00 1.211817600000000006e+01 7.242625999999999564e+00 3.358156000000000141e+00 3.687145999999999813e+00 7.134266000000000219e+00 4.894245999999999874e+00 1.256707600000000014e+01 2.792015999999999831e+00 9.482196000000000069e+00 2.867986000000000146e+00 1.181687600000000060e+01 5.680396000000000001e+00 6.385956000000000188e+00 1.387357599999999991e+01 3.998655999999999988e+00 1.323377600000000065e+01 1.397537600000000069e+01 6.292845999999999940e+00 1.566900700000000057e+01 3.441355999999999860e+00 1.462347600000000014e+01 4.126070000000000015e-01 5.942846000000000295e+00 9.402355999999999270e+00 3.010365999999999875e+00 1.468737600000000043e+01 9.038745999999999725e+00 1.093527600000000000e+01 5.517646000000000051e+00 9.211565999999999477e+00 1.143477599999999939e+01 1.043407599999999924e+01 1.223147600000000068e+01 8.049226000000000880e+00 1.324705999999999939e+00 1.127647600000000061e+01 1.245157599999999931e+01 4.860686000000000284e+00 7.824285999999999852e+00 2.489975999999999967e+00 4.225915999999999784e+00 4.689105999999999774e+00 6.162315999999999683e+00 5.880226000000000397e+00 7.311136000000000301e+00 1.432847600000000021e+01 1.260065999999999908e+00 2.704655999999999949e+00 1.209077599999999997e+01 1.441197599999999923e+01 4.713315999999999839e+00 9.283355999999999497e+00 1.269857599999999920e+01 1.094117600000000046e+01 1.294167599999999929e+01 5.838606000000000407e+00 1.242287600000000047e+01 1.039357599999999948e+01 6.219985999999999571e+00 1.205387600000000070e+01 5.885425999999999824e+00 5.445015999999999856e+00 1.493307599999999979e+01 7.251185999999999687e+00 1.064117599999999975e+01 1.384667600000000043e+01 2.471906000000000159e+00 1.055937600000000032e+01 3.562206000000000206e+00 4.042716000000000420e+00 9.015345999999999194e+00 9.948976000000000042e+00 6.927825999999999596e+00 1.028917599999999943e+01 5.006035999999999930e+00 2.667746000000000173e+00 1.260807600000000050e+01 2.403226000000000084e+00 4.836056000000000132e+00 4.549635999999999569e+00 9.247066000000000230e+00