-7.780573548604089592e+04
-7.779098744603904197e+04
-7.780003538868087344e+04
-7.779589658524499100e+04
-7.780896573405084200e+04
-7.779674490325547231e+04
-7.780263814774857019e+04
-7.779418358952626295e+04
-7.779717835754805128e+04
-7.780422819506251835e+04
-7.779005855975692975e+04
-7.780266934234225482e+04
-7.780791618764906889e+04
-7.779974153977043170e+04
-7.779111093787773279e+04
-7.779840125838489621e+04
-7.778899433766046423e+04
-7.780336684708723624e+04
-7.780575931107914948e+04
-7.781344865006272448e+04
-7.779099153591226786e+04
-7.779682804171588214e+04
-7.780789003318018513e+04
-7.780427453896160296e+04
-7.781406040200850111e+04
-7.781964666913836845e+04
-7.780025995876653178e+04
-7.780052414830612543e+04
-7.781485605089549790e+04
-7.780899117463387665e+04
-7.781152922395255882e+04
-7.779144895605956845e+04
-7.779002978257360519e+04
-7.778994745860461262e+04
-7.779401315191978938e+04
-7.779656782478425885e+04
-7.779226814251278120e+04
-7.781250601500181074e+04
-7.780479965427528077e+04
-7.780627664057460788e+04
-7.780794179128269025e+04
-7.780464769638047437e+04
-7.780381332549219951e+04
-7.780715481448851642e+04
-7.780014870637944841e+04
-7.780374071553268004e+04
-7.780586174694707734e+04
-7.779901581265220011e+04
-7.780991113425572985e+04
-7.780120027594926069e+04
-7.780584149016121228e+04
-7.780862329510996642e+04
-7.780783225900032267e+04
-7.781664592357630318e+04
-7.780042256931780139e+04
-7.780427246379962889e+04
-7.780900759530441428e+04
-7.780932980947775650e+04
-7.780263344247532950e+04
-7.780961783385628951e+04
-7.780585658443502325e+04
-7.781279687542558531e+04
-7.780154058503608394e+04
-7.780058312582013605e+04
-7.780757180615914694e+04
-7.780763933613874542e+04
-7.780757491691428004e+04
-7.781580924863040855e+04
-7.780116636784278671e+04
-7.779946084526073537e+04
-7.780083254698394740e+04
-7.781153723714084481e+04
-7.781037878530600574e+04
-7.780352990959702583e+04
-7.780283655412074586e+04
-7.779958008396679361e+04
-7.779945005662133917e+04
-7.780447767271334305e+04
-7.780166029891319340e+04
-7.781111972584239265e+04
-7.779794873085603467e+04
-7.780670313216684735e+04
-7.780186261641726014e+04
-7.780325190691153693e+04
-7.779940744754803018e+04
-7.779780566105018079e+04
-7.780771039882548212e+04
-7.779807898861129070e+04
-7.779031974031419668e+04
-7.780388607109323493e+04
-7.780023066207082593e+04
-7.780435705050775141e+04
-7.780504586226504762e+04
-7.780751657216176682e+04
-7.779390025942857028e+04
-7.780207307534693973e+04
-7.779542616340205132e+04
-7.781452545687538804e+04
-7.781535947848064825e+04
-7.780246057130527333e+04
-7.780491100772455684e+04
-7.780274577330355532e+04
-7.779547716418470372e+04
-7.781096548183128471e+04
-7.781109116025040566e+04
-7.781047116615388950e+04
-7.780596337401957135e+04
-7.780257057187872124e+04
-7.781100456980071613e+04
-7.778331536728290666e+04
-7.780918661771906773e+04
-7.780073351846374862e+04
-7.782127421618934022e+04
-7.780531339053227566e+04
-7.780424420750768331e+04
-7.780300997894954344e+04
-7.780630959956982406e+04
-7.778868121172346582e+04
-7.778294476018505520e+04
-7.780388178486906691e+04
-7.780182107999660366e+04
-7.781250695170582912e+04
-7.781117942204073188e+04
-7.781533942615568230e+04
-7.780726136312462040e+04
-7.780873840613207722e+04
-7.779711283301192452e+04
-7.780787443152027845e+04
-7.779317055703309597e+04
-7.780766782248175878e+04
-7.780026992316979158e+04
-7.780134279786986008e+04
-7.779423389350077196e+04
-7.779411438196552626e+04
-7.780430054164105968e+04
-7.780314577480281878e+04
-7.780238223886191554e+04
-7.780297555233880121e+04
-7.780706161048350623e+04
-7.780729097900091438e+04
-7.779902434464330145e+04
-7.779915524438025022e+04
-7.779601045643283578e+04
-7.780078108908595459e+04
-7.780206793593701150e+04
-7.780132356382589205e+04
-7.780066671797564777e+04
-7.780600040360575076e+04
-7.781049131916867918e+04
-7.779204686070927710e+04
-7.779409259776088584e+04
-7.780931977719414863e+04
-7.779230100976636459e+04
-7.781120268289789965e+04
-7.779362518165695656e+04
-7.780035007523150125e+04
-7.779561519420989498e+04
-7.780778873704167199e+04
-7.781036798900285794e+04
-7.780530503364335163e+04
-7.780548479203443276e+04
-7.781739618172030896e+04
-7.781422925247492094e+04
-7.780203896651421383e+04
-7.779982748691020242e+04
-7.780838703773719317e+04
-7.779612124984740512e+04
-7.780258935248269700e+04
-7.780268269093942945e+04
-7.780379520407288510e+04
-7.781188423780311132e+04
-7.779610890957759693e+04
-7.780288932760704483e+04
-7.780602720078823040e+04
-7.780267588577733841e+04
-7.781015549599962833e+04
-7.781276891690636694e+04
-7.780834740999416681e+04
