-2.389990224178604628e+00 3.706997303982696668e+00 5.707833549031263054e+00 -2.561742500652907317e+00 -5.475898427444692906e+00 -3.546526000671351042e+00 -1.138585875398784975e+00 -5.095366386368410661e-01 -1.185112047830690019e+00 3.641979756086305198e+00 -4.065036818524161433e+00 -2.774519302559822709e+00 -2.394181122677925710e+00 7.532988357429660775e-01 3.074946561142160029e+00 -3.186342700136799877e+00 6.106751036113031716e-01 -8.917537808643231090e-01 4.552218227546343421e+00 2.790684857912355099e+00 7.945347058729065326e-01 3.031001776497566524e+00 3.538942274159942336e+00 -3.284471945722547304e+00 1.550139821342185975e+00 1.862060940446831347e+00 6.667260827577130122e+00 -2.827399699869777017e+00 5.137064540884962466e-04 4.618140289609644178e+00 -6.842616248319499661e-01 -1.939505659390227121e+00 1.578802995974164958e+00 2.522785142332842678e+00 5.867437876284958831e-01 3.170106182331149824e+00 -1.319072704254615980e+00 1.878717062323088216e+00 -9.079990918435116853e+00 -3.754744750517164942e+00 -3.271759896421724823e-01 2.227576195158003092e+00 6.395835615051441714e-01 -1.723570514098915485e+00 9.403322080092083590e-01 -4.979580345473316072e+00 -4.355321074296792716e+00 1.820576701730980185e+00 -3.104604238559131257e+00 -4.109980733939818442e+00 1.621614438251580026e+00 4.342013557454593276e+00 -1.487712917205251451e+00 5.047961410803335269e+00 -3.565001435294920196e+00 -1.083189910547888601e+00 8.776991013816938247e-01 1.212630053019970872e-01 -2.978206739819622584e+00 -6.969099107691019146e-01 2.892978262522335697e+00 2.748408205136693816e+00 2.439435113160466351e+00 4.109148724888052051e+00 -5.950083423132909166e-01 3.473670701250217263e+00 6.407114531331697727e+00 -4.672540209013523516e+00 3.415381730883102929e+00 2.860361245122102325e+00 -1.240491557619993968e+00 4.212193405903861709e+00 -5.705278386498363830e+00 2.551136185015240310e-01 1.111707046508234820e+00 8.736480709059089023e-01 4.741685406266240022e-01 -4.307029582288425473e+00 4.355072705710881564e+00 3.146972422614900289e+00 -2.356348879194242851e+00 -2.603252964623171462e+00 1.790374978840109987e+00 1.736398777272234684e+00 1.747369675368308783e+00 2.487666441349885904e+00 -1.422153380717659399e+00 -3.284490457666839003e+00 -2.660761862226669994e+00 2.600318821452972440e+00 -4.008411866260580325e+00 1.398858669930208798e+00 4.173509612982771344e+00 2.302873528563587069e+00 -1.282013334445102792e+00 7.065371502420195737e-01 -3.506944378452123701e+00 3.920955785000218352e+00 1.655836852598424613e-01 -2.411079442491995461e+00 -1.893035022791196509e+00 -3.178291547032030984e+00 -1.085119780740275042e+00 -2.493219510416654350e-01 -9.826422851287294202e-01 -2.105579396953118909e+00 -1.384507285118241171e+00 -1.568146800931045637e-01 -3.011741126903634047e+00 -2.552873736675265182e+00 2.502030167458047849e+00 -3.747270038788806268e+00 -3.531451621590665724e+00 -4.734731085860741651e+00 7.635246280813082764e-01 1.515237607263304476e+00 -1.524227213099516032e-01 4.063624768551259869e+00 -1.639037263153908519e+00 -7.244361434891790630e-01 2.272381785212150174e+00 3.616611707538209153e+00 -9.066584671223364145e-02 -2.887463760006174329e+00 2.014480062212059552e-01 -1.968488165061233752e-01 -3.472138323639422985e+00 3.019391702102761421e+00 3.760399635277535957e+00 -2.695538092240234551e+00 2.370552168451878661e+00 -2.620090092176944996e+00 5.473575692656786895e-01 4.443997915439040769e-01 1.290957174641260474e+00 3.944436129451258211e+00 6.980231985299641950e-01 3.593225465470651692e+00 2.915935644547141603e+00 4.643968051440978129e-01 7.432813027779030524e-01 -2.312720854485303956e+00 -5.862624770769174765e-01 -1.329577718419354904e+00 3.412160652576386344e+00 -4.255049071159306529e+00 -2.861998009529873599e-01 1.051864101261985734e-01 3.586136933469039167e+00 3.563045339848120996e-01 -3.174567046684720895e-01 3.863972420926327644e-01 4.745869105676113975e+00 -1.815098194662052800e+00 8.338854944312323880e+00 -3.332744411565948361e+00 -1.168333541433839606e+00 3.759813937928980998e+00 -9.925076087740625219e-02 2.095238419183629741e+00 1.361142126098347782e-01 -4.701313941090576876e-01 4.989673983098244392e+00 5.741824049853789802e-01 1.836569993157467495e-01 -3.025375173874307322e+00 3.332144830259174406e-01 -2.151652026749882651e+00 1.468693437107782884e+00 -3.136920951085302445e+00 -5.228978915395521732e+00 6.719469138465169245e+00 1.527020459804830033e+00 6.167266067781196348e+00 1.112759142008800328e+00 6.799509129154095000e+00 -2.340613212325812320e+00 1.047562645317591024e+00 1.280900046684240401e+00 5.898171303353534789e+00 -3.291444778072337041e+00 1.869287283589279536e+00 3.688885423376185302e-01 1.099918537539287033e+00 2.651722891205681609e+00 3.994641036590420025e-01 -3.071851466900759497e+00 2.299353173824157659e-01 1.272949166611050842e+00 -1.724570159090655475e+00 1.775103139020315579e+00 -4.359818962538946074e+00 3.612803389220912820e+00 -5.529944563024336901e+00 -2.256671315156782764e+00 -5.973181187401925385e+00 -6.397054318050628963e-01 -3.130544614718238527e+00 9.438571907347104162e-01 -8.163366340415193489e-01 4.644657107145160335e-01 4.859412115987890246e+00 3.867749886003139181e+00 -2.929546551587450143e+00 -1.420321726674152574e+00 -2.343797266743946339e-01 1.642230059323513736e+00 2.450718143206121802e+00 -1.587001216191915365e+00 -2.231128945799942365e+00 -1.471044454032800264e+00 -1.382892632199484328e+00 -2.962234531440800733e+00 4.961972401128073029e-01 -3.380445578239686943e-01 -1.733494458901171931e-01 6.265711559081923454e+00 -9.124897295741517533e-01 -3.722268629581816368e-01 -1.590758626662410524e+00 -9.650487389623791934e-01 -2.041075555510815376e-01 2.660270267261596544e+00 -1.482711606922503922e+00 -3.677979317085131150e+00 9.172899795730666828e-01 5.065115298292761636e+00 1.521613943630368837e+00 -5.483417876371755817e+00 -2.835734702787015227e+00 -6.453109513806573050e-01 -4.191720738179511407e+00 4.126728901316857878e-01 8.176108728735827225e-02 -3.553146591858927561e+00 6.362498688706539340e-01 -3.546848931255102144e+00 2.871700839441981845e+00 1.945582719324578935e+00 -3.041498563131508792e+00 2.553507256546573512e+00 -2.263157180527571866e-01 7.356574670538629235e-01 -1.803873785773320249e+00 4.863760880234362816e+00 3.472307502241420263e+00 6.115396628317826710e+00 -1.264116912301317175e+00 1.104494587324005295e+00 6.387220876087131849e+00 -2.891999700578261390e+00 -2.287706075540770101e+00 -1.860618037233445987e+00 -3.709505158213517007e+00 2.042710263035887763e+00 9.974009327151097670e-01 -2.122982681469806732e+00 -4.523279430632690890e+00 -2.900338817260897262e+00 -1.260213977379863959e+00 2.021072371262524481e+00 1.240822201513866574e+00 -1.969352055794835854e+00 1.871866100273217315e-01 2.338909085009646560e+00 2.251332161890716055e+00 -5.357105224043583469e+00 6.194816468872987869e-02 -3.973312705663264222e+00 -1.194645184920126058e+00 1.697288181191090872e-02 2.777932185178226376e+00 -3.681212736688042497e+00 -7.687033444968490725e-01 8.885630415774171953e-02 3.670984887467001467e+00 6.816977205475803769e-01 -1.160063844542296829e+00 7.893765582843563777e-01 1.355409079795412586e+00 3.045353675530209081e-01 2.783676030115332267e+00 -3.794434359078092261e-02 -3.994855466611796135e+00 2.233325182301856060e+00 -2.903617488283187775e+00 5.810394348392120101e+00 -4.055039854386087939e+00 -8.292919097215050162e-01 3.620431338710350833e+00 -1.721076543826313809e+00 7.822535734975357702e-01 1.772995348474461164e+00 4.196565211156456643e-01 4.209892268384295200e+00 2.471099279650363023e+00 2.695425992133136273e+00 -1.566569171900871860e+00 3.168364002685051695e+00 -3.173182764628258212e+00 -2.141362985268544517e+00 -2.392354610841166185e+00 3.449375317029677479e+00 -5.066324745319804812e+00 -5.088886177425044011e+00 -3.782210819418295067e+00 -1.940786583091062223e+00 -2.987609264857668645e+00 5.891599563130059281e+00 -1.307369041697004519e+00 1.598329497656949982e+00 2.118910053725681308e+00 -3.531171371322920027e+00 1.554676790355622229e+00 -5.190104860824768629e+00 -1.904490830983572414e+00 4.261908260739972754e+00 -6.205399130359615656e-01 -1.530065160420102988e+00 -3.270581302635167109e+00 -1.091627243379404311e+00 -7.035119900123872894e-01 -1.599020610243831811e-02 -3.604270411343891700e-01 -5.814036059210794249e-01 3.666218576032621024e-01 2.663897579901376655e+00 2.449140514175948136e-01 -1.511725994275346263e+00 -2.246460435218008977e-01 -2.890273975993755684e+00 -2.608886252115202531e+00 2.854181855273471916e-02 8.246670089726841901e-01 4.234427279439274550e-01 -6.526823047533886202e-01 -5.915222860928683879e+00 3.013101240588382801e+00 -7.067795024460354902e+00 -1.099779183736426247e-01 2.819779977911135660e+00 1.597791622831147507e+00 2.499129448631708161e+00 -1.374990603090397334e+00 1.156577428367401961e+00 2.482506751099311071e+00 -1.972110849714940883e+00 3.623512548993532145e-01 -9.707894985754362827e-01 1.924585032291296072e+00 -1.419830645929753610e+00 -5.585311731517444755e+00 6.045794288885246281e+00 1.411136202760856495e+00 9.044678870478448651e-01 3.445875531117239099e+00 -2.363416842368863957e+00 -1.091624672276030328e+00 2.665956005262454021e+00 3.290113460745375029e+00 7.643468669402546656e-01 2.551341873285145612e-01 -3.738451154216616001e-01 3.593548910275077279e+00 -1.555528854013704887e+00 -1.977704027994341196e+00 -9.672701722773563437e-01 -1.614662174728780819e+00 2.468882988542133283e+00 3.982048800706816660e+00 -6.780537985800054734e+00 3.537347161626827052e+00 9.394456915659165075e-01 -2.330968489349952932e+00 1.565284134434638874e+00 3.518656268540532039e+00 3.728747810083833159e+00 -6.907222933896756123e-01 1.157259799202812633e+00 1.789970801389746180e+00 -1.111435537991959599e+00 9.455649175955994634e-01 2.315205568785760004e+00 -2.369728901151582967e+00 4.521622097397929529e+00 1.267763251106063471e+00 1.195077130286926970e+00 -1.047949339265012991e+00 2.278542663116488676e+00 1.959155574034955549e+00 -1.076681933688084625e+00 -4.571649598404297521e+00 1.331151747904805394e+00 5.747303071143392117e+00 2.357418972418425518e-01 -4.441667467341014586e+00 -1.811019910490505147e+00 -1.164835298183425127e+00 2.054172241876361049e+00 3.694724913358797380e+00 -1.218047882049276831e+00 2.917146120015534194e+00 1.413592634924200619e-01 6.152249281416084514e-01 -2.023032580474722231e+00 1.280515923840192194e+00 -6.949748469479001933e+00 -3.905744108999371189e+00 2.339205276118310473e-01 2.598382780612488396e+00 -1.752420865056508292e+00 1.447793452002704928e+00 -5.382687188392381028e-01 -2.489695556132501597e+00 -2.182352543695273428e-02 2.305461086998996212e+00 -3.207194348498449976e-01 -1.836841501673742494e+00 -6.976586160715569918e-01 -4.542675320264087269e+00 -5.730480341768512176e+00 -1.032824566558201207e+00 1.915466871286393979e-01 7.896958893233844146e-01 -4.191562358211684547e+00 7.951815954817588183e-01 1.067592569040969330e+00 -1.639156562350453816e+00 -7.000507706505558758e-01 -3.158920854213699059e+00 -4.635596538855832338e-01 -1.701547985260829732e+00 -2.489496552731368384e-02 -1.658715974156424133e+00 1.823072214665606650e+00 6.198205183119677164e-01 3.209486230045869970e+00 4.889898717132579620e+00 2.526302925968898272e+00 2.783535133650447246e+00 4.111869466478223600e+00 1.487276343852377503e+00 2.774492563084735242e+00 1.829632127813561659e+00 2.599094462026361185e+00 2.990410224873104372e+00 -2.262183760790245302e+00 5.064322884232951294e-01 4.204278007057229871e+00 -9.724180354524113445e-01 -5.352839249325747950e+00 1.053595482273913531e+00 1.239599384749279443e+00 9.475703782271759357e-01 -2.615058957095061309e+00 2.032760607199893599e+00 3.220140368206289239e+00 -1.418040643760902775e-01 1.709521491043708707e-01 2.436671177033613578e+00 -3.457455266492233115e-01 -2.453522188545605331e+00 8.123241701163416151e-01 1.348350372592937108e+00 -2.960578740868063274e+00 2.393482296780922169e+00 4.866239938107397300e-01 6.375801577562664191e-01 -1.303657396866563234e-01 -1.809706076666484975e+00 1.122980306361069491e+00 -7.771602177140055634e-01 -1.432343691829442989e+00 1.390139029948248284e-01 -1.194364934652379917e+00 -3.507478653733202556e-01 -4.077375029394429973e+00 -2.827489174267185934e+00 -1.256417486138086792e+00 -1.825349698034132995e-01 -4.134644300163489383e+00 -7.395418900310246624e-02 -1.227252432127539095e+00 -4.575218804107828774e+00 6.419458912850065424e+00 2.208144824300048992e+00 1.505561002605609600e-01 1.273577544275611650e+00 7.083430932517882361e-01 1.321919429910105581e+00 -6.837798000596967407e-02 3.854276275882992042e+00 -1.570311669971799162e+00 -2.726768770701306632e+00 3.735055240880479133e+00 1.782312512880496636e+00 -2.143978825841065472e+00 4.332611546637222588e+00 2.110189385302371434e+00 1.756412760154695496e+00 2.663427582204642707e+00 8.278135252815606027e-01 -7.316311191704666372e-01 8.929267182234582600e-01 -2.142718470967220679e+00 -1.163255098049877700e+00 1.736908884181600221e-01 6.814771713001743336e+00 -4.379946588190530288e-01 1.161474351853172493e+00 1.080533960762736445e+00 -2.531631794821469938e+00 4.957349557261950812e-01 1.159222065297709214e+00 1.140614475960725960e+00 -9.491649765396168448e-01 -2.617721591748985333e+00 9.262127367215587936e-01 -4.371965883318204016e-01 4.739273711301600356e-01 -2.432320355904441733e+00 -1.623672349391982461e-01 -1.702188704221584692e-01 4.788731455800331049e-02 5.331331969603775311e-01 -4.056229246806815070e-01 -1.685065669972642954e+00 2.659265994283783741e+00 2.501808024126550567e+00 5.903649296201787244e-01 -2.206556910856380116e-01 -1.091816476587716966e+00 -2.709072380400003421e+00 -3.963802708504192029e+00 1.269772825503038272e+00 -1.560202091505953348e+00 -1.587822940830187157e+00 -9.986026664320314383e-01 -8.979871638838035075e-01 -5.031839564208157034e-01 -1.745239773333439492e+00 2.524175595037402853e-01 -5.965769210595889049e+00 -2.662274699451823601e+00 1.838632018063268037e+00 -2.872837781353883013e-01 -1.762901196628858580e+00 -1.200921248255611529e+00 1.718966182177085411e+00 -3.276110717550897000e+00 -9.041660395117586679e-01 6.239759355847296352e-02 3.584273911964372061e+00 -5.331069717059645496e-01 -3.788880775790648969e-01 4.760347502994748403e+00 3.547693795823738228e+00 -7.642460796880010676e-01 4.216805451135813065e+00 -4.087387420152745143e+00 2.393424189844673755e+00 4.038541598256983001e+00 2.219051444811777518e+00 -1.855005318568405004e+00 -1.603435194736674507e+00 -2.152637787783403756e+00 -1.148080445937613714e+00 -9.904404416615142370e-02 -1.219767435985685128e-01 -1.644509599574739411e+00 1.546666774904835062e+00 -2.860494428276866063e+00 -4.355515963932526935e-01 1.046928611225607764e+00 1.005961164287893617e+00 1.086175475785564171e+00 -1.447212382640222228e-01 -2.064306502934595056e+00 -3.090313531786785362e+00 3.130349210861828269e+00 -3.369636659656163880e-01 -8.420286416147160224e-01 -1.749187959674271653e+00 -4.359580364145855924e+00 1.586968306068730517e+00 -6.771183283284761600e+00 1.037511688008668109e+00 3.407691560692018395e+00 -1.421061176004462023e+00 1.790380121046857287e+00 -1.216770557893164906e+00 -2.811607982947797346e+00 -4.160605759370262224e-01 2.466346852174201132e+00 -4.865838845981081406e-01 -3.361422498597495423e+00 -1.170322032783148947e+00 7.174329721195782383e-01 -4.061494866516390800e+00 -1.628727138624905368e+00 -2.287803777468975230e-01 -9.461449585167324150e-01 2.750280482613506994e+00 3.069360067731532027e+00 2.034632884676706777e+00 -2.087017059035515043e+00 -1.983441188062674998e+00 -3.682283858353574413e+00 -4.490399132246979619e+00 -6.836862118968898283e-01 2.422049312146720368e+00 -2.318157195458900866e+00 2.966437771236315690e+00 1.837262648406373433e+00 2.799630240770536904e+00 -2.552851110965575820e+00 2.332408821459964532e+00 -2.430859969188114422e-01 5.001094310064061466e-01 -6.349869428934353799e-01 -4.152460503882011711e-01 8.599600307643855412e-01 3.124324601436301752e+00 1.669601511620487200e+00 3.971830207457921480e-01 7.660679635386874464e-01 -2.123747327613179525e+00 2.324468740020945390e+00 9.598957335805766156e-02 5.366710352027487252e-01 -3.771892467358495260e+00 -1.945179570315564987e+00 1.385286329440507336e+00 -3.970899468036599989e-01 -4.395955820457934315e+00 5.235568653342611567e-01 -1.927214756822035913e+00 -3.831401683386823076e-01 6.484111878288049136e-01 9.006693389233686453e-01 -6.575956833007515212e-02 -2.752912264026945444e+00 -4.542884093858041261e+00 -2.833321979381025812e+00 3.970770912867909175e-01 -2.140430703185198791e+00 3.402711847677610812e+00 1.765288723221784262e-01 -3.055368637391898456e+00 -7.384537990832255039e-01 -2.200396547172716044e+00 3.568300160923526310e+00 2.783560330463510368e+00 5.577479122199452410e-01 -5.779213035115826624e-01 -7.580651471773467431e-01 -5.292055794465357899e-01 1.614674001804299985e+00 -2.539794019591986807e+00 -3.322534045847848339e-02 -3.399463001454456457e+00 -2.267378932267378300e+00 2.135596514621749265e+00 -4.129612136640255393e+00 -3.867587906490588257e+00 6.952993716157432891e-01 -2.262711865423226776e+00 6.829845577861753725e+00 1.408826323489819954e+00 2.022459738643036076e+00 -9.461454727374069007e-01 -1.071173087599345930e+00 -2.302376791391766098e+00 -1.492770277541548118e+00 -3.232535143350783180e-01 2.015895711729683182e+00 -2.576836934339908347e-01 -3.306189541700498502e+00 -7.975418683789221586e-01 5.912433213768093054e+00 -3.714908589063929956e+00 2.835051817730929180e+00 -2.829147535943297598e+00 -2.393981605056116901e+00 4.663076491715180683e-01 -1.579014854892167419e+00 -7.960814816625945145e-01 3.299014106404852154e+00 -1.205809944210586071e+00 3.397682769478426401e+00 2.209398494305121918e+00 5.331979887653975902e-01 -9.510259411615851199e-01 -4.083055110967865886e+00 3.165541445401276466e+00 -9.145245007841898977e-01 -1.259295887787141588e+01 2.216571358497394506e+00 -5.386141722885440686e+00 3.344993662259484246e+00 -6.712405289055947133e-01 2.677387645083115775e-01 -1.796976543862720543e+00 2.562109654214688170e-01 2.950284557179977951e-01 -2.551575329471488462e+00 -2.411235251356448561e+00 -1.506894376815270498e+00 1.380927280780539057e+00 -3.366782734911227815e-01 1.925400586281470483e+00 -7.718119113199279901e+00 1.393758629277906724e+00 7.347087299089246626e-01 4.325444338872371786e-01 -1.573307519622969775e+00 -2.125697766632556274e+00 1.909471058218654482e+00 1.653779969899371372e+00 4.003850214654755213e+00 2.262256780126061351e+00 3.074701277880297567e+00 -2.643000680120347390e+00 4.689815966802870495e-01 -3.881509917039128510e+00 -1.695563999268609567e+00 -2.742797029133677622e+00 8.755470878578095473e-01 -1.505391824003612378e+00 4.537906951947006995e+00 -6.556658131083651364e-01 5.155939524972823484e+00 1.306979262425533861e+00 1.740491973843350193e+00 7.604521595495978836e-01 5.497960551274736041e+00 7.488693388505553994e-01 -6.995283224449962978e-01 2.376496045231466958e+00 5.223289063629265705e+00 6.523068722387439955e+00 -4.212413492352660715e-01 1.962009498779891947e+00 6.895529555752638595e-01 -1.752289738784443829e+00 -1.214349092735704572e+00 4.355680514548451732e-01 -1.633566983615777346e+00 1.781805491295179955e+00 6.382275615857934126e-01 1.677018116412597681e+00 -3.829619908748768342e+00 -2.078027967419977973e+00 5.935520693623613786e-01 -3.686249528197349079e+00 9.239535596090538760e+00 -2.227870843604642825e+00 -1.388965578368438480e+00 2.309739403013026049e+00 1.780504512988029253e-01 1.862696002980164245e+00 -4.318605718118695869e+00 1.932410442519843508e-01 3.505078785844082390e+00 -5.103422681679925965e+00 1.980906080136091596e+00 1.573111087325210322e+00 7.626638226717544766e-01 -1.179161486182329632e+00 9.257751349273352082e-01 -1.145572591706793597e+00 4.882696028141170430e+00 -5.852576898784300763e-01 4.686437536969676465e-01 7.723769369973577659e-01 -1.510511405041555344e+00 7.731307845065606976e-01 -4.413234663571329541e+00 1.032364853274962690e-01 -7.302617495135721448e-01 2.844103130048112327e-01 -1.832500964958065692e+00 2.192929548754478652e+00 -2.667897188309685141e+00 -1.449534088986778491e+00 -1.977672146312505486e-01 4.356361856942513100e+00 -3.260553485256608930e+00 -1.823488733412164553e+00 3.307446811250295049e+00 -1.295908091297880982e-01 1.167198142183962117e+00 3.528622893658793558e+00 1.097044043967360327e+00 -2.544249741738810577e+00