-5.576623069134309674e+01 -8.141735510121085539e+00 -1.385118414002620391e+01 -8.141735510121085539e+00 -4.873287305151436755e+01 1.704108959691536285e+01 -1.385118414002620391e+01 1.704108959691536285e+01 -6.045814130845589318e+01
-1.966822810473303562e+01 -4.631468405454124593e+01 -6.240696076156198480e+00 -4.631468405454124593e+01 -6.303660481964306683e+01 -1.236183106563737333e+01 -6.240696076156198480e+00 -1.236183106563737333e+01 -4.128371323838238283e+01
-8.829326486385662065e+01 3.212870586321103161e+01 3.559411990054035524e+00 3.212870586321103161e+01 -1.018280715106073728e+02 -3.054424029759961456e+01 3.559411990054035524e+00 -3.054424029759961456e+01 -6.083532929931254074e+01
-4.222536062054800254e+01 4.806167214707945590e+01 9.585240803021646272e+00 4.806167214707945590e+01 -3.515938058523205711e+01 1.167784872369528060e+01 9.585240803021646272e+00 1.167784872369528060e+01 -5.957863919812965747e+01
-1.485699782296091485e+02 1.267013692752963472e+01 4.738992266176004620e+01 1.267013692752963472e+01 -2.953231116292578662e+01 -2.153973006702033643e+01 4.738992266176004620e+01 -2.153973006702033643e+01 -5.573315987814716976e+01
-9.250745649385628155e+01 3.360664076482554918e+01 -3.826202606180820709e+01 3.360664076482554918e+01 -6.270204244209623567e+01 -8.121196480640472615e+00 -3.826202606180820709e+01 -8.121196480640472615e+00 -9.257148073737099025e+01
-2.734967603465361563e+01 -8.671635804306310646e+00 1.167063564284899879e+00 -8.671635804306310646e+00 -1.021853969508396602e+02 -3.751036609440735248e+01 1.167063564284899879e+00 -3.751036609440735248e+01 -3.017387348284400161e+01
-7.447490355944393237e+00 2.350554491025473780e+01 -4.849783479776111506e+01 2.350554491025473780e+01 -6.239549230489154041e+01 -2.842841275363608844e+01 -4.849783479776111506e+01 -2.842841275363608844e+01 -9.555103562517507498e+01
-3.758004612361414587e+01 -1.001351534284498968e+01 1.009754852757922094e+01 -1.001351534284498968e+01 -3.562142258113009774e+01 -1.702438553686592826e+01 1.009754852757922094e+01 -1.702438553686592826e+01 -1.568395972361531108e+02
-7.746729812869382670e+01 1.941750146240405428e+01 -1.542172664652627745e+01 1.941750146240405428e+01 -1.151414942948908759e+02 2.126989833263376894e+01 -1.542172664652627745e+01 2.126989833263376894e+01 -7.947038309965144265e+01
-3.883785604710622863e+01 -1.773093613891989939e+00 -2.278552764504836858e+01 -1.773093613891989939e+00 1.604127768151204236e+01 7.572782086485685404e+00 -2.278552764504836858e+01 7.572782086485685404e+00 -4.080167223168614754e+01
-9.294004287439773293e+01 -1.642837070491667006e+01 -2.437517294044236138e+01 -1.642837070491667006e+01 -8.262156918513099413e+01 -1.146115684153669534e+01 -2.437517294044236138e+01 -1.146115684153669534e+01 -5.193899539472416649e+01
-1.159827079776453047e+02 1.268597928610670600e+01 1.585703566667575259e+01 1.268597928610670600e+01 -1.375643884834748008e+02 -4.837650030039467453e+01 1.585703566667575259e+01 -4.837650030039467453e+01 -9.411833915045221488e+01
-4.654839393430758321e+01 9.617280733646387247e+00 -1.677743216710102914e+01 9.617280733646387247e+00 -2.973391465206033857e+01 -1.540350826875375212e+01 -1.677743216710102914e+01 -1.540350826875375212e+01 -6.785322604504011679e+01
-5.682845150427761638e+01 3.210041920090970002e+00 1.019901428428373436e+01 3.210041920090970002e+00 -8.835900302670791007e+01 -6.594433782709613112e+00 1.019901428428373436e+01 -6.594433782709613112e+00 -7.115377828158625562e+01
-1.152886185356532849e+02 2.654577689557567410e+01 1.403641326230403941e+01 2.654577689557567410e+01 -2.403844948988160724e+01 -6.530633700453544854e+00 1.403641326230403941e+01 -6.530633700453544854e+00 7.042464480923650072e+00
-6.272354219500471117e+01 -8.180115075909817790e+00 1.405758419635213308e+01 -8.180115075909817790e+00 -5.250266886519666087e+01 1.461239439178545263e+00 1.405758419635213308e+01 1.461239439178545263e+00 -8.019430817339890893e+01
-6.799855961606337473e+01 -3.891231954436281004e+00 -3.668502064745172042e+00 -3.891231954436281004e+00 -5.559565412913155313e+01 -6.574281156063064735e+00 -3.668502064745172042e+00 -6.574281156063064735e+00 -5.271482580216083846e+01
-9.570554652891574676e+01 1.496481335125633905e+01 -1.306358720394158368e+01 1.496481335125633905e+01 -1.180130050502588688e+02 2.486496609095902954e+01 -1.306358720394158368e+01 2.486496609095902954e+01 -7.803523935875124096e+01
-6.418310174295731940e+01 -2.000257479814801798e+01 1.615431218759261256e+01 -2.000257479814801798e+01 -1.554008503050656387e+01 -1.643927035841669948e+01 1.615431218759261256e+01 -1.643927035841669948e+01 -9.631680646098675425e+01
-6.963679317006844371e+01 3.202366935443149742e+01 -3.402346682392921196e+01 3.202366935443149742e+01 -6.549879706471260477e+01 4.200488646375045931e+01 -3.402346682392921196e+01 4.200488646375045931e+01 -5.530458417722871900e+01
-9.936001279065752101e+01 9.726107588714741681e+00 -1.221888118794514178e+01 9.726107588714741681e+00 -8.512954242390873105e+01 -1.686193442321971858e+01 -1.221888118794514178e+01 -1.686193442321971858e+01 -2.850393688174182216e+01
-7.045869899675538761e+01 3.723155611094397699e+01 -9.525966356199427665e+00 3.723155611094397699e+01 -7.612049358565606383e+01 -5.083069647535024771e+00 -9.525966356199427665e+00 -5.083069647535024771e+00 -4.146103547425685321e+01
-6.342938192798037988e+01 4.792619242599230489e+01 -6.568543350384801194e+00 4.792619242599230489e+01 -5.654274203225562445e+01 -6.826752786114581362e+00 -6.568543350384801194e+00 -6.826752786114581362e+00 3.085225047524920683e+01
-8.062985050357787031e+01 -7.556748035791764906e+00 -2.195242921919283319e+01 -7.556748035791764906e+00 -5.261158652665358915e+01 -4.994361869761009487e+00 -2.195242921919283319e+01 -4.994361869761009487e+00 -5.321652600794015697e+00
-7.959025369004439199e+01 -7.560509727211393027e+00 3.245490043974599814e+01 -7.560509727211393027e+00 -4.988492778958895002e+01 -4.747168897868375836e+01 3.245490043974599814e+01 -4.747168897868375836e+01 -3.756750963494818052e+01
-8.956755286201327237e+01 -2.497132309531086136e+01 -1.911879387347692472e+01 -2.497132309531086136e+01 -9.827911907391839463e+01 -3.102140745001725364e+01 -1.911879387347692472e+01 -3.102140745001725364e+01 -3.793382643023890211e+01
-7.648103858114153297e+01 -9.525259490354045511e+00 1.443612423552866009e+00 -9.525259490354045511e+00 1.522354986397652077e+01 3.119128626069618804e+01 1.443612423552866009e+00 3.119128626069618804e+01 -4.172238594277885682e+01
-6.837033875999799193e+01 2.123140446368093492e+01 -3.837944774807705528e+01 2.123140446368093492e+01 -5.972861250693160429e+00 2.380173765318154278e+00 -3.837944774807705528e+01 2.380173765318154278e+00 -6.626709139556847106e+01
-1.452693771944165491e+01 2.592751393834738849e+01 3.817088427202850909e+01 2.592751393834738849e+01 -7.981121784253983265e+01 -4.311857553979516311e+00 3.817088427202850909e+01 -4.311857553979516311e+00 -5.156038072273795336e+01
-4.660067420567235530e+01 -1.049566391492868078e+01 -4.051653768232043262e+00 -1.049566391492868078e+01 -6.100219514234468221e+01 1.409974863072126361e+01 -4.051653768232043262e+00 1.409974863072126361e+01 5.433880557518985199e+01
-9.210410229415960259e+01 -1.406898415686369930e+01 -3.333053127183052311e+01 -1.406898415686369930e+01 -2.681008511068523603e+01 -1.394988024931244297e+01 -3.333053127183052311e+01 -1.394988024931244297e+01 -6.047570160940549044e+01
-8.258559366991303818e+01 1.716304587523092451e+00 -1.737311436691716793e+01 1.716304587523092451e+00 -5.850550080382657114e+01 -1.964315871604694053e+01 -1.737311436691716793e+01 -1.964315871604694053e+01 -4.462275834527464724e+01
-8.509876718341304880e+00 -5.826455239766449301e-01 -1.594662723386857905e+01 -5.826455239766449301e-01 -6.566094684810734350e+01 1.623543352195469680e+01 -1.594662723386857905e+01 1.623543352195469680e+01 -3.147602298965774992e+01
-7.338991899311525913e+01 -3.101335017751810597e+01 -1.919153486524844610e+01 -3.101335017751810597e+01 -1.199866160980702645e+01 -3.774891574550823492e+01 -1.919153486524844610e+01 -3.774891574550823492e+01 -2.458595030733128084e+01
-9.506516916532565631e+01 -1.030330847353384982e+00 -8.528208006924174356e+00 -1.030330847353384982e+00 -8.266154651859888247e+01 1.433288675029681158e+01 -8.528208006924174356e+00 1.433288675029681158e+01 -6.445820145162988979e+01
-6.528340373239977623e+01 3.138213570626288806e+00 1.976207311112737131e+01 3.138213570626288806e+00 -1.177961180418378007e+02 -1.446078054686893211e+01 1.976207311112737131e+01 -1.446078054686893211e+01 -1.030371045782853656e+02
-1.018762073171242406e+02 -4.522634104417179657e+01 -1.374952261708882517e+01 -4.522634104417179657e+01 -4.694709978347988510e+01 -1.575879511733462657e+01 -1.374952261708882517e+01 -1.575879511733462657e+01 -7.131157042716803574e+01
-7.763790623382955403e+01 2.503332501597297810e+00 -1.409232763051985238e+01 2.503332501597297810e+00 -1.212922330843869823e+01 -2.427416587369772216e+01 -1.409232763051985238e+01 -2.427416587369772216e+01 1.559546545794315797e+01
-8.184310115429715893e+01 -1.361960659409617236e+01 -1.933090452054153019e+01 -1.361960659409617236e+01 -1.092647755048155176e+02 -2.419760441049706046e+01 -1.933090452054153019e+01 -2.419760441049706046e+01 -5.966494774011495394e+01
-4.083691983006232107e+01 -2.600344304493063063e+01 -1.614330764741449542e+01 -2.600344304493063063e+01 -7.725664049063645678e+01 -1.600873199047316930e+01 -1.614330764741449542e+01 -1.600873199047316930e+01 -7.798617286879047583e+01
-5.639005626447428909e+01 5.458677214461130944e+01 -2.082484901174768765e+01 5.458677214461130944e+01 -4.496903990256883787e+01 -1.615657876763017242e+01 -2.082484901174768765e+01 -1.615657876763017242e+01 -7.020520358625375934e+01
-5.461585776761277344e+01 -1.761715968521390785e+00 -1.178952659372575873e+01 -1.761715968521390785e+00 -9.107925388426501456e+01 4.608429605081918012e+00 -1.178952659372575873e+01 4.608429605081918012e+00 -8.347264657991341608e+01
-1.604064412076235513e+01 -1.261584078726790281e+01 4.581545372111026637e+01 -1.261584078726790281e+01 -4.562658670035820307e+01 1.307050254628505570e+01 4.581545372111026637e+01 1.307050254628505570e+01 1.668001367430707704e+00
-1.153123397130451053e+02 2.285318862290296593e+01 8.599837691154606389e+00 2.285318862290296593e+01 -1.913308715099135782e+01 -2.450994809964749876e+01 8.599837691154606389e+00 -2.450994809964749876e+01 -7.651662023011303404e+01
-3.990568843973676394e+01 1.471200966752655503e+01 1.779000477163608540e+00 1.471200966752655503e+01 2.267161895825524098e+01 -9.375243284412272615e+00 1.779000477163608540e+00 -9.375243284412272615e+00 -7.159002427086233133e+00
-2.859456160546537262e+01 -1.729202491384893747e+01 -3.433279198745355387e+01 -1.729202491384893747e+01 -5.427788966533326942e+01 1.586952523799058490e+01 -3.433279198745355387e+01 1.586952523799058490e+01 -2.615160789003723352e+01
-6.209570566545112058e+01 -1.638774616738467305e-01 -1.316602190137181516e+01 -1.638774616738467305e-01 -2.137868024711983139e+01 -3.789141019492939932e+01 -1.316602190137181516e+01 -3.789141019492939932e+01 -4.143809755247377780e+01
-9.091646639443865752e+01 -1.069865752144528948e+01 7.284656871313757165e+01 -1.069865752144528948e+01 -3.768680586041877945e+01 -8.110717933636740540e+00 7.284656871313757165e+01 -8.110717933636740540e+00 -5.922159020472948043e+01
-2.488857514065820098e+01 5.416599568787955121e+00 9.601305026556886446e+00 5.416599568787955121e+00 -7.471334826370417659e+01 2.811887794506195704e+01 9.601305026556886446e+00 2.811887794506195704e+01 -8.471919916327303213e+01
-1.004259095955461731e+02 1.121680153457932505e+01 -2.730789956373139304e+01 1.121680153457932505e+01 -3.744393151656545626e+01 -1.144576533776530880e+01 -2.730789956373139304e+01 -1.144576533776530880e+01 -7.759506942120984263e+01
-1.597707370114270331e+00 -3.074328901809216319e+01 2.309591501954478332e+01 -3.074328901809216319e+01 2.527916995025311664e+01 -5.517880530046542020e+01 2.309591501954478332e+01 -5.517880530046542020e+01 -3.447078812488980759e+01
-6.164111273778618738e+01 -2.999095117737097738e+01 2.062048569390321884e+00 -2.999095117737097738e+01 -1.624349689404215091e+00 -8.648993519917896222e+00 2.062048569390321884e+00 -8.648993519917896222e+00 -2.864736734685619624e+01
-5.633330585562888615e+01 -2.988751739888280312e+01 1.271620127718984428e+01 -2.988751739888280312e+01 -5.392098998508942742e+01 1.622488514237052115e+01 1.271620127718984428e+01 1.622488514237052115e+01 -4.740046289491085929e+01
-1.026912142015540468e+02 4.032016734872252428e+00 5.712758236349261942e+00 4.032016734872252428e+00 -1.113023443931112411e+02 -1.421620094882005247e+01 5.712758236349261942e+00 -1.421620094882005247e+01 -6.425259293101544245e+01
-3.887205783719721097e+01 3.505904990403404042e+01 1.924649120635585220e+01 3.505904990403404042e+01 -5.689191101658140326e+01 -9.538185460392753612e+00 1.924649120635585220e+01 -9.538185460392753612e+00 -5.476235101270297889e+01
-1.101066245212661343e+01 -1.931195884232811366e+01 -2.709521548501149368e+01 -1.931195884232811366e+01 -5.755094539424672462e+01 2.097614921672360211e+01 -2.709521548501149368e+01 2.097614921672360211e+01 -7.797510121189785082e+01
-4.522358477888938211e+01 8.219355555970308203e+00 -1.431523223201965500e+01 8.219355555970308203e+00 -1.561178985639634043e+01 3.086281224927048328e+01 -1.431523223201965500e+01 3.086281224927048328e+01 -5.291550068088861991e+01
-6.226585716806454229e+01 -1.683453206049973971e+01 2.921137740819649053e+01 -1.683453206049973971e+01 -5.097286984461685222e+01 -4.884826883794278096e+00 2.921137740819649053e+01 -4.884826883794278096e+00 -3.127627924928362191e+01
-6.111376795689332653e+01 -4.728550642481069488e+00 3.052603947305211562e+01 -4.728550642481069488e+00 -5.567709494488568822e+01 -1.437969008352020950e+01 3.052603947305211562e+01 -1.437969008352020950e+01 -9.199044878205366160e+01
-3.533581065198534432e+00 -1.164617990636021183e+01 -4.591856411188989284e+01 -1.164617990636021183e+01 -5.528347274148767099e+01 -2.448628353962563864e+01 -4.591856411188989284e+01 -2.448628353962563864e+01 -7.254653985567806274e+01
-4.814401851767889440e+01 -5.491974406374374240e+01 2.516200340296859395e+01 -5.491974406374374240e+01 -5.364112352629879865e+01 9.682985297464695051e+00 2.516200340296859395e+01 9.682985297464695051e+00 -8.873510259165848879e+01
-1.142874236613668444e+02 -5.832654224175191970e+00 4.169441437766684544e+01 -5.832654224175191970e+00 -1.089498800153537275e+02 1.504062928183704528e+01 4.169441437766684544e+01 1.504062928183704528e+01 -5.289950023782943589e+01
-1.178777926331569290e+02 -1.222530099090246303e+01 1.978902590865797606e+01 -1.222530099090246303e+01 -4.477030726206196931e+01 5.617279213806417593e-01 1.978902590865797606e+01 5.617279213806417593e-01 2.337245643675849394e+01
-8.938253110426580861e+01 9.484272689761477082e+00 3.030292696041576583e+00 9.484272689761477082e+00 1.564041992461982167e+00 3.392745648576113382e+01 3.030292696041576583e+00 3.392745648576113382e+01 1.933246011500039163e+00
-4.811603581686701858e+01 -2.486899656215849319e+01 2.869222070369301747e+01 -2.486899656215849319e+01 -4.819330439008400191e+01 3.676358982701998901e+00 2.869222070369301747e+01 3.676358982701998901e+00 -4.633545405748656520e+01
-3.964068323119381176e+01 1.012602919899855847e+00 -2.594968849621848150e+00 1.012602919899855847e+00 7.353570991064892759e-01 -2.761756965736120861e+01 -2.594968849621848150e+00 -2.761756965736120861e+01 -6.861523800426310515e+01
-3.771047028392415257e+01 3.309389386234038000e+00 2.847499649558535140e+01 3.309389386234038000e+00 -5.505772387699159509e+01 -2.475734340664119060e+01 2.847499649558535140e+01 -2.475734340664119060e+01 -8.659741145076259272e+01
-8.534750270491804258e+01 -3.030167306977956088e+01 -1.670373744114019132e+01 -3.030167306977956088e+01 -7.699223762898276391e+01 -2.097335386062020746e+01 -1.670373744114019132e+01 -2.097335386062020746e+01 -3.732330229689203804e+01
-3.921496129135471165e+01 1.889831966833388943e+00 -3.036679205337492959e+01 1.889831966833388943e+00 -7.042478346501260944e+01 2.779244439896099550e+01 -3.036679205337492959e+01 2.779244439896099550e+01 -1.095706678346101484e+02
-7.756030337025011079e+01 -1.951623761884226482e+01 4.260440769287087903e+01 -1.951623761884226482e+01 -9.779099083233342427e+00 2.418225313739592863e+01 4.260440769287087903e+01 2.418225313739592863e+01 -2.329345156297461727e+01
-8.454059391199523077e+01 -8.360995848478657066e+00 1.537258859836596692e+01 -8.360995848478657066e+00 -1.097822237003906878e+02 2.394232856875130011e+01 1.537258859836596692e+01 2.394232856875130011e+01 -3.914229164063009136e+01
-5.356721029277955637e+01 1.277084001335797403e+01 7.841106491633198061e+00 1.277084001335797403e+01 -1.281086030514696859e+02 2.903259766111265794e-02 7.841106491633198061e+00 2.903259766111265794e-02 6.751114209844757852e+00
-1.240838692178283083e+02 2.668785292821275856e+00 2.590138290900026874e+01 2.668785292821275856e+00 -5.264038880293305311e+01 -1.258640846635712229e+01 2.590138290900026874e+01 -1.258640846635712229e+01 -9.978896953464358432e+01
-1.678582439485548861e+01 -2.709587893920346602e+01 -2.326379745838743318e+01 -2.709587893920346602e+01 -6.876644545748533233e+01 1.237773621679300717e+01 -2.326379745838743318e+01 1.237773621679300717e+01 -2.800242953812497859e+01
-1.280728951890761813e+01 1.353869754280227156e+01 1.612040857223048462e+01 1.353869754280227156e+01 -3.221886835116286107e+01 -5.049169608295080991e+00 1.612040857223048462e+01 -5.049169608295080991e+00 -2.268546414471184747e+01
-7.871450236353600971e+00 -3.214972208172743251e+01 -1.037388939162188350e+01 -3.214972208172743251e+01 -2.815827055953854696e+01 5.224136360198382567e-01 -1.037388939162188350e+01 5.224136360198382567e-01 3.251786787726264283e+00
-3.728160161107713577e+01 -4.357258379871114862e+00 1.776054330453309404e+01 -4.357258379871114862e+00 -2.388181617619338937e+01 -8.649046041274809582e+00 1.776054330453309404e+01 -8.649046041274809582e+00 -7.610759158337735641e+01
-4.096534422601246916e+01 -1.422538931919703487e+01 6.966524632477973000e+01 -1.422538931919703487e+01 -1.025608371112699615e+02 -9.872649118840968185e+00 6.966524632477973000e+01 -9.872649118840968185e+00 -7.827812089531711592e+01
-5.327744927730520885e+01 -6.222117265652100215e+00 2.011401044101527091e+01 -6.222117265652100215e+00 -4.772729933879551822e+01 -1.184428165598094829e+01 2.011401044101527091e+01 -1.184428165598094829e+01 -8.853474977274400715e+01
-4.065458321577360579e+01 1.334079923027877435e+01 -2.673716073769290347e+01 1.334079923027877435e+01 -3.502534176836603308e+01 -2.384040541248407052e+01 -2.673716073769290347e+01 -2.384040541248407052e+01 -5.660726519267134904e+01
-2.962179008732177010e+01 2.698974528800257389e+01 8.937834063051321110e+00 2.698974528800257389e+01 -3.920980744514503158e+01 2.585159234377935711e+00 8.937834063051321110e+00 2.585159234377935711e+00 -1.158834205953966467e+01
-4.390627649885728800e+01 -4.670306292602486309e+01 -1.679627701002421247e+01 -4.670306292602486309e+01 -7.572100334947758427e+01 2.561017023348962418e+00 -1.679627701002421247e+01 2.561017023348962418e+00 -2.460874688168167879e+01
-7.910982317287557919e+01 1.245172158985320188e+01 6.529096062353234586e+00 1.245172158985320188e+01 -2.269388813458198939e+01 1.154124408689598980e+01 6.529096062353234586e+00 1.154124408689598980e+01 -5.252496640811241946e+01
-4.268592986620638641e+01 2.044173523098897505e+01 1.116051715079874107e+01 2.044173523098897505e+01 -1.108998412762071268e+02 9.433621738564054837e+00 1.116051715079874107e+01 9.433621738564054837e+00 -4.566939491656253836e+01
-3.113754615283069782e+01 -9.835766581316166324e+00 1.059189030202835191e+01 -9.835766581316166324e+00 1.149620810196184806e+01 -1.635908406835129014e+01 1.059189030202835191e+01 -1.635908406835129014e+01 -4.638925258451914146e+01
-9.589912790525671937e+01 -1.277519011883186373e+01 -4.144682423203155253e+01 -1.277519011883186373e+01 -6.194793527111820453e+01 2.927542160745526445e+01 -4.144682423203155253e+01 2.927542160745526445e+01 -6.808406644315991230e+01
-6.540348108920841241e+01 -1.849446677701622122e+01 7.598828243017480943e+00 -1.849446677701622122e+01 -7.955126727324255853e+01 6.143112335424933512e+00 7.598828243017480943e+00 6.143112335424933512e+00 -3.812640973129656174e+01
-4.517849379251273234e+01 -2.373161042984434843e+01 5.190562085531601255e+00 -2.373161042984434843e+01 -8.655941502786726005e+01 -1.520087099774919714e+01 5.190562085531601255e+00 -1.520087099774919714e+01 -5.590155893876681859e+01
-6.289075017690323222e+01 3.970655416834218521e+00 -1.306695671796268954e+01 3.970655416834218521e+00 -7.792439522833086585e+01 3.392703825955850760e+01 -1.306695671796268954e+01 3.392703825955850760e+01 -1.479442126176003285e+02
5.804512827313267564e+01 -1.869403809211022960e+01 1.404852634604497474e+01 -1.869403809211022960e+01 -3.351064073304920754e+01 -1.954192829704844314e+01 1.404852634604497474e+01 -1.954192829704844314e+01 -2.205288388091951646e+01
-4.235441271689467868e+01 -1.756568773037362163e+01 -2.309511697957360710e+01 -1.756568773037362163e+01 -1.086267007055873393e+02 3.457773478295306546e+01 -2.309511697957360710e+01 3.457773478295306546e+01 5.401706342431636898e+01
-8.910013983653790604e+01 -7.426474657811502844e+00 -5.127595300070147033e+01 -7.426474657811502844e+00 -1.109850717116663361e+02 -2.327148298986993424e+01 -5.127595300070147033e+01 -2.327148298986993424e+01 -9.185653488119268673e+01
-3.426868181421711057e+01 3.945557170670608738e+00 -4.025975464289434314e+01 3.945557170670608738e+00 -9.645255105112629224e+01 2.404366536911435759e+01 -4.025975464289434314e+01 2.404366536911435759e+01 -6.332872040152576432e+01
-2.831089733498458116e+01 1.150838022604130195e+01 -1.223322197232997333e+01 1.150838022604130195e+01 -4.057658362857381462e+01 1.258208688304983447e+01 -1.223322197232997333e+01 1.258208688304983447e+01 -6.110050063762930961e+01
-5.834997815034657265e+01 -6.493435085214581193e+01 3.261871639857010763e+01 -6.493435085214581193e+01 -1.099592502416174682e+02 6.207046516821718818e+00 3.261871639857010763e+01 6.207046516821718818e+00 -5.699117458546576387e+01
-4.240174417029153098e+00 1.058168549655132828e+01 -1.632293809657721795e+01 1.058168549655132828e+01 -5.197975273209258518e+01 -1.852110970646577570e+01 -1.632293809657721795e+01 -1.852110970646577570e+01 -2.097273917912330177e+01
-2.027989378659954411e+01 -4.203870933766927465e+01 -3.337553530037396410e+00 -4.203870933766927465e+01 -1.682092753376061367e+01 -2.291410635007272933e+00 -3.337553530037396410e+00 -2.291410635007272933e+00 1.681935430244880081e+01
-7.190799599288168054e+01 3.134718148753695388e+01 1.220897951762198019e+01 3.134718148753695388e+01 -6.601553392065230241e+01 5.584497200700914377e+00 1.220897951762198019e+01 5.584497200700914377e+00 -4.789288472854117629e+01
-2.732689857050027626e+01 -7.197195239665376221e+00 -2.185086964574104940e+01 -7.197195239665376221e+00 -3.755796234900601149e+01 9.587122184080344667e+00 -2.185086964574104940e+01 9.587122184080344667e+00 -5.438437651003829387e+01
-5.037891257930533584e+01 -1.568131920842669125e+01 -1.626074849408165335e+01 -1.568131920842669125e+01 -1.244803583492782550e+01 -4.031727831502443848e+01 -1.626074849408165335e+01 -4.031727831502443848e+01 -4.180469666330657219e+01
-2.508373585826247876e+01 2.971908201464356125e+01 -1.368692569276643489e+01 2.971908201464356125e+01 -2.315187883160387727e+01 -2.318058781959526371e+01 -1.368692569276643489e+01 -2.318058781959526371e+01 -3.376845874387851154e+01
-5.795642183241200485e+01 6.343339174504765587e+00 2.236364188077703474e+01 6.343339174504765587e+00 -5.348291686981207960e+01 -2.853500296118255974e+01 2.236364188077703474e+01 -2.853500296118255974e+01 3.952313522697608761e+01
-1.365551864142761929e+01 1.273770885274591969e+01 3.698805015868839252e+00 1.273770885274591969e+01 -4.560693670127433563e+01 -5.847848417266863663e+00 3.698805015868839252e+00 -5.847848417266863663e+00 -3.199442379597562791e+01
-3.020011330152572526e+01 5.871600915901606932e+00 2.874572097056880793e+01 5.871600915901606932e+00 -4.629630437483020700e+01 -1.082209440326522731e+01 2.874572097056880793e+01 -1.082209440326522731e+01 -7.323419451609946407e+01
-7.180648456757620579e+01 4.984339524958109990e+01 2.510543545124501819e+01 4.984339524958109990e+01 -3.926709974939676329e+01 3.723153352593551091e+01 2.510543545124501819e+01 3.723153352593551091e+01 -7.820399747601527451e+01
-1.021840961415708335e+02 2.528009570423859387e+01 9.135622603364323524e+00 2.528009570423859387e+01 2.626627439458677671e+01 -2.604108294449877192e+01 9.135622603364323524e+00 -2.604108294449877192e+01 -6.068216386939119644e+01
-4.637319083319669488e+01 2.809285407154341385e+01 1.751549617460872099e+01 2.809285407154341385e+01 -6.018755056740652520e+01 -2.129117087594224600e+01 1.751549617460872099e+01 -2.129117087594224600e+01 -4.785186246377172381e+01
1.711691472337554032e+01 5.298530624782167742e+00 -7.313172187575736061e+00 5.298530624782167742e+00 1.625696386735450416e-01 3.036206695445850201e+01 -7.313172187575736061e+00 3.036206695445850201e+01 -5.500345779431009419e+01
-8.762977072340551388e+01 2.187904013202354392e+01 4.082162060100931456e+01 2.187904013202354392e+01 -5.191169549636165215e+01 -9.029477790433118045e+00 4.082162060100931456e+01 -9.029477790433118045e+00 -6.757496582191764389e+01
-1.977820950005275691e+01 -1.674712366933215435e+01 2.226806074580726857e+01 -1.674712366933215435e+01 -8.378342258903001039e+01 -5.687955833341344025e+00 2.226806074580726857e+01 -5.687955833341344025e+00 -6.304606307134243792e+01
-1.064763990370313351e+01 9.870759539152862416e+00 3.189016456171072988e+01 9.870759539152862416e+00 6.332776696296805063e+00 -2.920854713938034664e+01 3.189016456171072988e+01 -2.920854713938034664e+01 -1.171288831866845328e+02
-4.862038074689780132e+01 1.810249145612799282e+01 -4.135240093003982764e+01 1.810249145612799282e+01 3.208700502155902967e+01 -5.370434402080952907e+01 -4.135240093003982764e+01 -5.370434402080952907e+01 -1.483222924805921750e+01
-1.067867673317950192e+02 1.115312092010900891e+01 1.155656760175234865e+01 1.115312092010900891e+01 -9.086905670181789674e+01 1.365375385509191553e+01 1.155656760175234865e+01 1.365375385509191553e+01 -1.155886127700168942e+02
-5.211302186790384638e+01 7.298297224550792883e+00 -1.119430823943880959e+01 7.298297224550792883e+00 -3.438495072476732872e+01 4.199851704718287948e+00 -1.119430823943880959e+01 4.199851704718287948e+00 -7.223992231232310246e+01
-6.127502262173332781e+01 5.877374196925416072e+00 4.212437570535578146e+01 5.877374196925416072e+00 -5.006622888356284307e+01 3.787127442136917210e+01 4.212437570535578146e+01 3.787127442136917210e+01 -6.386908354584129910e+01
-5.281222057371265777e+01 1.710742068324763210e+01 1.839946762305108763e+01 1.710742068324763210e+01 -5.763852214656842676e+01 -1.356750598066975044e+01 1.839946762305108763e+01 -1.356750598066975044e+01 -8.209708859039004381e+01
-5.099905626939420955e+01 -1.273617916638816538e+01 -1.932763185439646847e+01 -1.273617916638816538e+01 -4.749524597258258041e+01 1.660978920577193563e+01 -1.932763185439646847e+01 1.660978920577193563e+01 -1.844221888574357315e+00
-1.883812196127943750e+01 -3.400837815642183415e+01 -1.896741837894117211e+01 -3.400837815642183415e+01 -1.106407537527089886e+02 -2.517710533323394273e+01 -1.896741837894117211e+01 -2.517710533323394273e+01 -2.307170434825893679e+01
-8.013410179309863679e+01 2.783171234020848672e+01 4.094362850253440911e+01 2.783171234020848672e+01 -1.056912130535772008e+02 2.375564784075429259e+00 4.094362850253440911e+01 2.375564784075429259e+00 -2.698005291944046746e+01
-6.067270888481268543e+01 3.254211423240680467e+00 2.450474430630116718e+00 3.254211423240680467e+00 -6.990776510373214592e+01 -2.906805929542398026e+00 2.450474430630116718e+00 -2.906805929542398026e+00 4.713362229667018966e+01
-7.245128995539669603e+00 -1.461286742760901269e+01 7.260565161141479429e+00 -1.461286742760901269e+01 -5.670534397292995976e+01 -5.952235281315994442e+00 7.260565161141479429e+00 -5.952235281315994442e+00 2.726557741994347861e+00
-9.909769957468832047e+01 1.671118064424008409e+01 2.732692532679524078e+01 1.671118064424008409e+01 -7.415158448115730039e+01 2.425090111121386016e+01 2.732692532679524078e+01 2.425090111121386016e+01 -4.814695483129797537e+01
-3.495538750118886639e+01 1.448883108443039269e+01 1.205504670076821760e+01 1.448883108443039269e+01 -6.028860822683243725e+01 -2.506943853309794079e+01 1.205504670076821760e+01 -2.506943853309794079e+01 -3.939909523007244729e+01
-5.484250460768534197e+01 7.390236488141779247e+00 2.999727025224808585e+01 7.390236488141779247e+00 -2.086898995902701159e+01 2.140341121738929431e+01 2.999727025224808585e+01 2.140341121738929431e+01 -6.667767448243957951e+00
-1.039566995485917715e+02 -2.454761917625536327e+01 1.256703986758870784e+01 -2.454761917625536327e+01 -9.076711448149033856e+01 -3.370184035770286357e+01 1.256703986758870784e+01 -3.370184035770286357e+01 -1.966318996345294323e+01
-5.922868311783969375e+01 -2.935547014269338284e+00 6.868868846305246301e+00 -2.935547014269338284e+00 -1.138647193587739537e+02 -6.163036283636080270e+01 6.868868846305246301e+00 -6.163036283636080270e+01 -4.101327879430313317e+01
1.159855649569168534e+01 -1.844062748509253424e+01 6.101212691436861491e+01 -1.844062748509253424e+01 -6.625263647318239180e+01 -4.578878992002454140e+01 6.101212691436861491e+01 -4.578878992002454140e+01 -6.331740201436144133e+01
-7.814191749838328427e+00 -1.409016379717701106e+01 3.748634639554304204e+00 -1.409016379717701106e+01 -2.318713619709385299e+01 1.170735194505520305e+01 3.748634639554304204e+00 1.170735194505520305e+01 -2.347776574865223864e+01